MODEL 1
REMARK VINA RESULT:    -8.862      0.000      0.000
REMARK INTER + INTRA:         -12.878
REMARK INTER:                 -11.970
REMARK INTRA:                  -0.907
REMARK UNBOUND:                -0.907
REMARK  Name = SCH442416
REMARK  7 active torsions:
REMARK  status: ('A' for Active; 'I' for Inactive)
REMARK    1  A    between atoms: C_9  and  C_10
REMARK    2  A    between atoms: N_17  and  C_18
REMARK    3  A    between atoms: C_18  and  C_19
REMARK    4  A    between atoms: C_19  and  C_20
REMARK    5  A    between atoms: C_20  and  C_21
REMARK    6  A    between atoms: C_24  and  O_25
REMARK    7  A    between atoms: O_25  and  C_26
REMARK                            x       y       z     vdW  Elec       q    Type
REMARK                         _______ _______ _______ _____ _____    ______ ____
ROOT
ATOM      1  N   UNL A   1      -7.335  -9.210  51.789  1.00  0.00    -0.171 NA
ATOM      2  N   UNL A   1      -7.914  -9.722  52.902  1.00  0.00    -0.196 N 
ATOM      3  C   UNL A   1      -8.080 -11.109  53.191  1.00  0.00    +0.165 A 
ATOM      4  N   UNL A   1      -8.631 -11.510  54.325  1.00  0.00    -0.214 NA
ATOM      5  C   UNL A   1      -9.045 -10.502  55.160  1.00  0.00    +0.145 A 
ATOM      6  C   UNL A   1      -8.942  -9.140  54.983  1.00  0.00    +0.125 A 
ATOM      7  C   UNL A   1      -8.305  -8.726  53.749  1.00  0.00    +0.171 A 
ATOM      8  N   UNL A   1      -8.011  -7.555  53.258  1.00  0.00    -0.206 NA
ATOM      9  C   UNL A   1      -7.429  -7.887  52.044  1.00  0.00    +0.200 A 
ATOM     10  C   UNL A   1      -9.518  -8.522  56.081  1.00  0.00    +0.226 A 
ATOM     11  N   UNL A   1      -9.973  -9.430  56.953  1.00  0.00    -0.260 NA
ATOM     12  N   UNL A   1      -9.680 -10.628  56.374  1.00  0.00    -0.297 N 
ATOM     13  N   UNL A   1      -7.634 -12.020  52.262  1.00  0.00    -0.362 N 
ATOM     14  H   UNL A   1      -6.970 -11.669  51.574  1.00  0.00    +0.193 HD
ATOM     15  H   UNL A   1      -7.447 -12.947  52.620  1.00  0.00    +0.193 HD
ENDROOT
BRANCH   9  16
ATOM     16  C   UNL A   1      -6.970  -6.811  51.111  1.00  0.00    +0.133 A 
ATOM     17  O   UNL A   1      -6.990  -5.464  51.348  1.00  0.00    -0.525 OA
ATOM     18  C   UNL A   1      -6.447  -4.857  50.260  1.00  0.00    +0.208 A 
ATOM     19  C   UNL A   1      -6.096  -5.787  49.310  1.00  0.00    +0.091 A 
ATOM     20  C   UNL A   1      -6.434  -7.046  49.857  1.00  0.00    +0.124 A 
ENDBRANCH   9  16
BRANCH  12  21
ATOM     21  C   UNL A   1     -10.058 -11.851  57.057  1.00  0.00    +0.201 C 
BRANCH  21  22
ATOM     22  C   UNL A   1      -9.068 -12.211  58.160  1.00  0.00    +0.060 C 
BRANCH  22  23
ATOM     23  C   UNL A   1      -9.756 -12.346  59.519  1.00  0.00    +0.063 C 
BRANCH  23  24
ATOM     24  C   UNL A   1     -10.087 -10.991  60.098  1.00  0.00    -0.076 A 
ATOM     25  C   UNL A   1     -11.419 -10.586  60.239  1.00  0.00    +0.025 A 
ATOM     26  C   UNL A   1     -11.732  -9.313  60.733  1.00  0.00    +0.080 A 
ATOM     27  C   UNL A   1     -10.716  -8.429  61.090  1.00  0.00    +0.033 A 
ATOM     28  C   UNL A   1      -9.385  -8.830  60.950  1.00  0.00    +0.080 A 
ATOM     29  C   UNL A   1      -9.070 -10.099  60.456  1.00  0.00    +0.025 A 
BRANCH  27  30
ATOM     30  O   UNL A   1     -10.886  -7.162  61.576  1.00  0.00    -0.584 OA
ATOM     31  C   UNL A   1     -10.001  -6.748  62.611  1.00  0.00    +0.350 C 
ENDBRANCH  27  30
ENDBRANCH  23  24
ENDBRANCH  22  23
ENDBRANCH  21  22
ENDBRANCH  12  21
TORSDOF 6
ENDMDL
MODEL 2
REMARK VINA RESULT:    -8.801      1.924      8.746
REMARK INTER + INTRA:         -12.796
REMARK INTER:                 -12.097
REMARK INTRA:                  -0.699
REMARK UNBOUND:                -0.907
REMARK  Name = SCH442416
REMARK  7 active torsions:
REMARK  status: ('A' for Active; 'I' for Inactive)
REMARK    1  A    between atoms: C_9  and  C_10
REMARK    2  A    between atoms: N_17  and  C_18
REMARK    3  A    between atoms: C_18  and  C_19
REMARK    4  A    between atoms: C_19  and  C_20
REMARK    5  A    between atoms: C_20  and  C_21
REMARK    6  A    between atoms: C_24  and  O_25
REMARK    7  A    between atoms: O_25  and  C_26
REMARK                            x       y       z     vdW  Elec       q    Type
REMARK                         _______ _______ _______ _____ _____    ______ ____
ROOT
ATOM      1  N   UNL A   1     -10.404 -10.050  60.072  1.00  0.00    -0.171 NA
ATOM      2  N   UNL A   1     -10.156 -10.472  58.808  1.00  0.00    -0.196 N 
ATOM      3  C   UNL A   1     -10.221 -11.822  58.353  1.00  0.00    +0.165 A 
ATOM      4  N   UNL A   1      -9.993 -12.129  57.087  1.00  0.00    -0.214 NA
ATOM      5  C   UNL A   1      -9.668 -11.067  56.279  1.00  0.00    +0.145 A 
ATOM      6  C   UNL A   1      -9.572  -9.733  56.608  1.00  0.00    +0.125 A 
ATOM      7  C   UNL A   1      -9.859  -9.419  57.994  1.00  0.00    +0.171 A 
ATOM      8  N   UNL A   1      -9.897  -8.295  58.653  1.00  0.00    -0.206 NA
ATOM      9  C   UNL A   1     -10.220  -8.720  59.932  1.00  0.00    +0.200 A 
ATOM     10  C   UNL A   1      -9.196  -9.039  55.470  1.00  0.00    +0.226 A 
ATOM     11  N   UNL A   1      -9.059  -9.870  54.430  1.00  0.00    -0.260 NA
ATOM     12  N   UNL A   1      -9.346 -11.099  54.943  1.00  0.00    -0.297 N 
ATOM     13  N   UNL A   1     -10.543 -12.797  59.268  1.00  0.00    -0.362 N 
ATOM     14  H   UNL A   1     -10.987 -12.475  60.126  1.00  0.00    +0.193 HD
ATOM     15  H   UNL A   1     -10.912 -13.653  58.877  1.00  0.00    +0.193 HD
ENDROOT
BRANCH   9  16
ATOM     16  C   UNL A   1     -10.327  -7.730  61.050  1.00  0.00    +0.133 A 
ATOM     17  O   UNL A   1     -11.117  -6.613  61.075  1.00  0.00    -0.525 OA
ATOM     18  C   UNL A   1     -10.942  -6.025  62.287  1.00  0.00    +0.208 A 
ATOM     19  C   UNL A   1     -10.034  -6.729  63.042  1.00  0.00    +0.091 A 
ATOM     20  C   UNL A   1      -9.637  -7.827  62.245  1.00  0.00    +0.124 A 
ENDBRANCH   9  16
BRANCH  12  21
ATOM     21  C   UNL A   1      -9.276 -12.258  54.072  1.00  0.00    +0.201 C 
BRANCH  21  22
ATOM     22  C   UNL A   1      -9.772 -11.938  52.665  1.00  0.00    +0.060 C 
BRANCH  22  23
ATOM     23  C   UNL A   1      -8.705 -12.229  51.608  1.00  0.00    +0.063 C 
BRANCH  23  24
ATOM     24  C   UNL A   1      -8.112 -10.950  51.068  1.00  0.00    -0.076 A 
ATOM     25  C   UNL A   1      -7.062 -10.314  51.742  1.00  0.00    +0.025 A 
ATOM     26  C   UNL A   1      -6.537  -9.104  51.271  1.00  0.00    +0.080 A 
ATOM     27  C   UNL A   1      -7.058  -8.513  50.122  1.00  0.00    +0.033 A 
ATOM     28  C   UNL A   1      -8.106  -9.144  49.447  1.00  0.00    +0.080 A 
ATOM     29  C   UNL A   1      -8.632 -10.351  49.916  1.00  0.00    +0.025 A 
BRANCH  27  30
ATOM     30  O   UNL A   1      -6.642  -7.335  49.564  1.00  0.00    -0.584 OA
ATOM     31  C   UNL A   1      -6.566  -6.208  50.429  1.00  0.00    +0.350 C 
ENDBRANCH  27  30
ENDBRANCH  23  24
ENDBRANCH  22  23
ENDBRANCH  21  22
ENDBRANCH  12  21
TORSDOF 6
ENDMDL
MODEL 3
REMARK VINA RESULT:    -8.619      2.555      9.260
REMARK INTER + INTRA:         -12.550
REMARK INTER:                 -11.813
REMARK INTRA:                  -0.737
REMARK UNBOUND:                -0.907
REMARK  Name = SCH442416
REMARK  7 active torsions:
REMARK  status: ('A' for Active; 'I' for Inactive)
REMARK    1  A    between atoms: C_9  and  C_10
REMARK    2  A    between atoms: N_17  and  C_18
REMARK    3  A    between atoms: C_18  and  C_19
REMARK    4  A    between atoms: C_19  and  C_20
REMARK    5  A    between atoms: C_20  and  C_21
REMARK    6  A    between atoms: C_24  and  O_25
REMARK    7  A    between atoms: O_25  and  C_26
REMARK                            x       y       z     vdW  Elec       q    Type
REMARK                         _______ _______ _______ _____ _____    ______ ____
ROOT
ATOM      1  N   UNL A   1     -10.178  -7.892  61.279  1.00  0.00    -0.171 NA
ATOM      2  N   UNL A   1     -10.142  -8.709  60.199  1.00  0.00    -0.196 N 
ATOM      3  C   UNL A   1     -10.265  -8.297  58.839  1.00  0.00    +0.165 A 
ATOM      4  N   UNL A   1     -10.184  -9.171  57.849  1.00  0.00    -0.214 NA
ATOM      5  C   UNL A   1     -10.006 -10.476  58.237  1.00  0.00    +0.145 A 
ATOM      6  C   UNL A   1      -9.880 -10.987  59.511  1.00  0.00    +0.125 A 
ATOM      7  C   UNL A   1      -9.940 -10.004  60.576  1.00  0.00    +0.171 A 
ATOM      8  N   UNL A   1      -9.833 -10.102  61.871  1.00  0.00    -0.206 NA
ATOM      9  C   UNL A   1     -10.000  -8.786  62.275  1.00  0.00    +0.200 A 
ATOM     10  C   UNL A   1      -9.741 -12.360  59.408  1.00  0.00    +0.226 A 
ATOM     11  N   UNL A   1      -9.762 -12.746  58.126  1.00  0.00    -0.260 NA
ATOM     12  N   UNL A   1      -9.928 -11.587  57.430  1.00  0.00    -0.297 N 
ATOM     13  N   UNL A   1     -10.456  -6.959  58.585  1.00  0.00    -0.362 N 
ATOM     14  H   UNL A   1     -10.215  -6.321  59.341  1.00  0.00    +0.193 HD
ATOM     15  H   UNL A   1     -10.200  -6.654  57.655  1.00  0.00    +0.193 HD
ENDROOT
BRANCH   9  16
ATOM     16  C   UNL A   1      -9.992  -8.440  63.731  1.00  0.00    +0.133 A 
ATOM     17  O   UNL A   1     -10.794  -7.524  64.355  1.00  0.00    -0.525 OA
ATOM     18  C   UNL A   1     -10.487  -7.555  65.678  1.00  0.00    +0.208 A 
ATOM     19  C   UNL A   1      -9.480  -8.460  65.921  1.00  0.00    +0.091 A 
ATOM     20  C   UNL A   1      -9.160  -9.029  64.667  1.00  0.00    +0.124 A 
ENDBRANCH   9  16
BRANCH  12  21
ATOM     21  C   UNL A   1     -10.011 -11.642  55.982  1.00  0.00    +0.201 C 
BRANCH  21  22
ATOM     22  C   UNL A   1      -8.651 -11.418  55.329  1.00  0.00    +0.060 C 
BRANCH  22  23
ATOM     23  C   UNL A   1      -8.767 -11.277  53.811  1.00  0.00    +0.063 C 
BRANCH  23  24
ATOM     24  C   UNL A   1      -8.299  -9.916  53.354  1.00  0.00    -0.076 A 
ATOM     25  C   UNL A   1      -8.642  -8.768  54.076  1.00  0.00    +0.025 A 
ATOM     26  C   UNL A   1      -8.248  -7.499  53.634  1.00  0.00    +0.080 A 
ATOM     27  C   UNL A   1      -7.510  -7.363  52.460  1.00  0.00    +0.033 A 
ATOM     28  C   UNL A   1      -7.166  -8.507  51.736  1.00  0.00    +0.080 A 
ATOM     29  C   UNL A   1      -7.559  -9.774  52.175  1.00  0.00    +0.025 A 
BRANCH  27  30
ATOM     30  O   UNL A   1      -7.072  -6.186  51.917  1.00  0.00    -0.584 OA
ATOM     31  C   UNL A   1      -6.471  -6.259  50.629  1.00  0.00    +0.350 C 
ENDBRANCH  27  30
ENDBRANCH  23  24
ENDBRANCH  22  23
ENDBRANCH  21  22
ENDBRANCH  12  21
TORSDOF 6
ENDMDL
MODEL 4
REMARK VINA RESULT:    -8.524      0.980      2.331
REMARK INTER + INTRA:         -12.422
REMARK INTER:                 -11.618
REMARK INTRA:                  -0.804
REMARK UNBOUND:                -0.907
REMARK  Name = SCH442416
REMARK  7 active torsions:
REMARK  status: ('A' for Active; 'I' for Inactive)
REMARK    1  A    between atoms: C_9  and  C_10
REMARK    2  A    between atoms: N_17  and  C_18
REMARK    3  A    between atoms: C_18  and  C_19
REMARK    4  A    between atoms: C_19  and  C_20
REMARK    5  A    between atoms: C_20  and  C_21
REMARK    6  A    between atoms: C_24  and  O_25
REMARK    7  A    between atoms: O_25  and  C_26
REMARK                            x       y       z     vdW  Elec       q    Type
REMARK                         _______ _______ _______ _____ _____    ______ ____
ROOT
ATOM      1  N   UNL A   1      -8.050  -6.504  53.659  1.00  0.00    -0.171 NA
ATOM      2  N   UNL A   1      -8.471  -7.602  54.334  1.00  0.00    -0.196 N 
ATOM      3  C   UNL A   1      -9.022  -7.610  55.649  1.00  0.00    +0.165 A 
ATOM      4  N   UNL A   1      -9.436  -8.733  56.211  1.00  0.00    -0.214 NA
ATOM      5  C   UNL A   1      -9.266  -9.862  55.449  1.00  0.00    +0.145 A 
ATOM      6  C   UNL A   1      -8.745  -9.974  54.178  1.00  0.00    +0.125 A 
ATOM      7  C   UNL A   1      -8.329  -8.724  53.572  1.00  0.00    +0.171 A 
ATOM      8  N   UNL A   1      -7.831  -8.435  52.403  1.00  0.00    -0.206 NA
ATOM      9  C   UNL A   1      -7.655  -7.063  52.495  1.00  0.00    +0.200 A 
ATOM     10  C   UNL A   1      -8.753 -11.314  53.829  1.00  0.00    +0.226 A 
ATOM     11  N   UNL A   1      -9.265 -12.059  54.817  1.00  0.00    -0.260 NA
ATOM     12  N   UNL A   1      -9.567 -11.159  55.794  1.00  0.00    -0.297 N 
ATOM     13  N   UNL A   1      -9.125  -6.410  56.313  1.00  0.00    -0.362 N 
ATOM     14  H   UNL A   1      -9.073  -5.573  55.735  1.00  0.00    +0.193 HD
ATOM     15  H   UNL A   1      -9.805  -6.385  57.061  1.00  0.00    +0.193 HD
ENDROOT
BRANCH   9  16
ATOM     16  C   UNL A   1      -7.049  -6.304  51.356  1.00  0.00    +0.133 A 
ATOM     17  O   UNL A   1      -7.045  -4.946  51.193  1.00  0.00    -0.525 OA
ATOM     18  C   UNL A   1      -6.356  -4.680  50.052  1.00  0.00    +0.208 A 
ATOM     19  C   UNL A   1      -5.932  -5.846  49.459  1.00  0.00    +0.091 A 
ATOM     20  C   UNL A   1      -6.380  -6.892  50.297  1.00  0.00    +0.124 A 
ENDBRANCH   9  16
BRANCH  12  21
ATOM     21  C   UNL A   1     -10.137 -11.639  57.040  1.00  0.00    +0.201 C 
BRANCH  21  22
ATOM     22  C   UNL A   1      -9.058 -12.089  58.019  1.00  0.00    +0.060 C 
BRANCH  22  23
ATOM     23  C   UNL A   1      -9.641 -12.415  59.395  1.00  0.00    +0.063 C 
BRANCH  23  24
ATOM     24  C   UNL A   1     -10.022 -11.156  60.136  1.00  0.00    -0.076 A 
ATOM     25  C   UNL A   1      -9.104 -10.108  60.274  1.00  0.00    +0.025 A 
ATOM     26  C   UNL A   1      -9.437  -8.955  60.998  1.00  0.00    +0.080 A 
ATOM     27  C   UNL A   1     -10.690  -8.839  61.596  1.00  0.00    +0.033 A 
ATOM     28  C   UNL A   1     -11.608  -9.883  61.461  1.00  0.00    +0.080 A 
ATOM     29  C   UNL A   1     -11.278 -11.034  60.740  1.00  0.00    +0.025 A 
BRANCH  27  30
ATOM     30  O   UNL A   1     -11.134  -7.775  62.333  1.00  0.00    -0.584 OA
ATOM     31  C   UNL A   1     -11.028  -6.490  61.732  1.00  0.00    +0.350 C 
ENDBRANCH  27  30
ENDBRANCH  23  24
ENDBRANCH  22  23
ENDBRANCH  21  22
ENDBRANCH  12  21
TORSDOF 6
ENDMDL
MODEL 5
REMARK VINA RESULT:    -8.458      3.095      4.460
REMARK INTER + INTRA:         -12.332
REMARK INTER:                 -11.705
REMARK INTRA:                  -0.626
REMARK UNBOUND:                -0.907
REMARK  Name = SCH442416
REMARK  7 active torsions:
REMARK  status: ('A' for Active; 'I' for Inactive)
REMARK    1  A    between atoms: C_9  and  C_10
REMARK    2  A    between atoms: N_17  and  C_18
REMARK    3  A    between atoms: C_18  and  C_19
REMARK    4  A    between atoms: C_19  and  C_20
REMARK    5  A    between atoms: C_20  and  C_21
REMARK    6  A    between atoms: C_24  and  O_25
REMARK    7  A    between atoms: O_25  and  C_26
REMARK                            x       y       z     vdW  Elec       q    Type
REMARK                         _______ _______ _______ _____ _____    ______ ____
ROOT
ATOM      1  N   UNL A   1      -8.147 -10.458  52.966  1.00  0.00    -0.171 NA
ATOM      2  N   UNL A   1      -8.724 -10.140  54.150  1.00  0.00    -0.196 N 
ATOM      3  C   UNL A   1      -8.840  -8.826  54.694  1.00  0.00    +0.165 A 
ATOM      4  N   UNL A   1      -9.453  -8.614  55.847  1.00  0.00    -0.214 NA
ATOM      5  C   UNL A   1      -9.926  -9.742  56.471  1.00  0.00    +0.145 A 
ATOM      6  C   UNL A   1      -9.867 -11.051  56.046  1.00  0.00    +0.125 A 
ATOM      7  C   UNL A   1      -9.220 -11.252  54.764  1.00  0.00    +0.171 A 
ATOM      8  N   UNL A   1      -9.007 -12.316  54.042  1.00  0.00    -0.206 NA
ATOM      9  C   UNL A   1      -8.331 -11.795  52.950  1.00  0.00    +0.200 A 
ATOM     10  C   UNL A   1     -10.457 -11.842  57.016  1.00  0.00    +0.226 A 
ATOM     11  N   UNL A   1     -10.898 -11.095  58.036  1.00  0.00    -0.260 NA
ATOM     12  N   UNL A   1     -10.562  -9.821  57.688  1.00  0.00    -0.297 N 
ATOM     13  N   UNL A   1      -8.309  -7.781  53.975  1.00  0.00    -0.362 N 
ATOM     14  H   UNL A   1      -8.126  -7.963  52.990  1.00  0.00    +0.193 HD
ATOM     15  H   UNL A   1      -8.691  -6.869  54.189  1.00  0.00    +0.193 HD
ENDROOT
BRANCH   9  16
ATOM     16  C   UNL A   1      -7.844 -12.702  51.863  1.00  0.00    +0.133 A 
ATOM     17  O   UNL A   1      -8.313 -12.759  50.579  1.00  0.00    -0.525 OA
ATOM     18  C   UNL A   1      -7.568 -13.684  49.920  1.00  0.00    +0.208 A 
ATOM     19  C   UNL A   1      -6.637 -14.246  50.761  1.00  0.00    +0.091 A 
ATOM     20  C   UNL A   1      -6.815 -13.615  52.013  1.00  0.00    +0.124 A 
ENDBRANCH   9  16
BRANCH  12  21
ATOM     21  C   UNL A   1     -10.886  -8.736  58.595  1.00  0.00    +0.201 C 
BRANCH  21  22
ATOM     22  C   UNL A   1      -9.663  -8.270  59.377  1.00  0.00    +0.060 C 
BRANCH  22  23
ATOM     23  C   UNL A   1      -9.005  -9.420  60.142  1.00  0.00    +0.063 C 
BRANCH  23  24
ATOM     24  C   UNL A   1      -9.365  -9.374  61.607  1.00  0.00    -0.076 A 
ATOM     25  C   UNL A   1      -8.590  -8.632  62.506  1.00  0.00    +0.025 A 
ATOM     26  C   UNL A   1      -8.892  -8.621  63.873  1.00  0.00    +0.080 A 
ATOM     27  C   UNL A   1      -9.971  -9.356  64.359  1.00  0.00    +0.033 A 
ATOM     28  C   UNL A   1     -10.746 -10.099  63.466  1.00  0.00    +0.080 A 
ATOM     29  C   UNL A   1     -10.446 -10.112  62.101  1.00  0.00    +0.025 A 
BRANCH  27  30
ATOM     30  O   UNL A   1     -10.366  -9.437  65.667  1.00  0.00    -0.584 OA
ATOM     31  C   UNL A   1     -10.113 -10.665  66.339  1.00  0.00    +0.350 C 
ENDBRANCH  27  30
ENDBRANCH  23  24
ENDBRANCH  22  23
ENDBRANCH  21  22
ENDBRANCH  12  21
TORSDOF 6
ENDMDL
MODEL 6
REMARK VINA RESULT:    -8.420      3.248     10.048
REMARK INTER + INTRA:         -12.281
REMARK INTER:                 -11.564
REMARK INTRA:                  -0.717
REMARK UNBOUND:                -0.907
REMARK  Name = SCH442416
REMARK  7 active torsions:
REMARK  status: ('A' for Active; 'I' for Inactive)
REMARK    1  A    between atoms: C_9  and  C_10
REMARK    2  A    between atoms: N_17  and  C_18
REMARK    3  A    between atoms: C_18  and  C_19
REMARK    4  A    between atoms: C_19  and  C_20
REMARK    5  A    between atoms: C_20  and  C_21
REMARK    6  A    between atoms: C_24  and  O_25
REMARK    7  A    between atoms: O_25  and  C_26
REMARK                            x       y       z     vdW  Elec       q    Type
REMARK                         _______ _______ _______ _____ _____    ______ ____
ROOT
ATOM      1  N   UNL A   1     -11.297  -8.841  61.750  1.00  0.00    -0.171 NA
ATOM      2  N   UNL A   1     -10.982  -8.708  60.439  1.00  0.00    -0.196 N 
ATOM      3  C   UNL A   1     -10.927  -7.480  59.717  1.00  0.00    +0.165 A 
ATOM      4  N   UNL A   1     -10.576  -7.451  58.442  1.00  0.00    -0.214 NA
ATOM      5  C   UNL A   1     -10.306  -8.676  57.884  1.00  0.00    +0.145 A 
ATOM      6  C   UNL A   1     -10.332  -9.919  58.479  1.00  0.00    +0.125 A 
ATOM      7  C   UNL A   1     -10.688  -9.919  59.885  1.00  0.00    +0.171 A 
ATOM      8  N   UNL A   1     -10.786 -10.873  60.768  1.00  0.00    -0.206 NA
ATOM      9  C   UNL A   1     -11.179 -10.178  61.902  1.00  0.00    +0.200 A 
ATOM     10  C   UNL A   1     -10.010 -10.860  57.517  1.00  0.00    +0.226 A 
ATOM     11  N   UNL A   1      -9.770 -10.272  56.338  1.00  0.00    -0.260 NA
ATOM     12  N   UNL A   1      -9.960  -8.945  56.580  1.00  0.00    -0.297 N 
ATOM     13  N   UNL A   1     -11.235  -6.321  60.390  1.00  0.00    -0.362 N 
ATOM     14  H   UNL A   1     -11.204  -6.372  61.406  1.00  0.00    +0.193 HD
ATOM     15  H   UNL A   1     -10.868  -5.472  59.981  1.00  0.00    +0.193 HD
ENDROOT
BRANCH   9  16
ATOM     16  C   UNL A   1     -11.455 -10.912  63.176  1.00  0.00    +0.133 A 
ATOM     17  O   UNL A   1     -12.188 -12.060  63.313  1.00  0.00    -0.525 OA
ATOM     18  C   UNL A   1     -12.151 -12.406  64.626  1.00  0.00    +0.208 A 
ATOM     19  C   UNL A   1     -11.425 -11.489  65.350  1.00  0.00    +0.091 A 
ATOM     20  C   UNL A   1     -10.978 -10.526  64.416  1.00  0.00    +0.124 A 
ENDBRANCH   9  16
BRANCH  12  21
ATOM     21  C   UNL A   1      -9.793  -8.001  55.491  1.00  0.00    +0.201 C 
BRANCH  21  22
ATOM     22  C   UNL A   1      -8.603  -8.360  54.608  1.00  0.00    +0.060 C 
BRANCH  22  23
ATOM     23  C   UNL A   1      -8.937  -8.222  53.122  1.00  0.00    +0.063 C 
BRANCH  23  24
ATOM     24  C   UNL A   1      -8.660  -9.507  52.380  1.00  0.00    -0.076 A 
ATOM     25  C   UNL A   1      -9.006  -9.636  51.030  1.00  0.00    +0.025 A 
ATOM     26  C   UNL A   1      -8.793 -10.841  50.347  1.00  0.00    +0.080 A 
ATOM     27  C   UNL A   1      -8.234 -11.932  51.009  1.00  0.00    +0.033 A 
ATOM     28  C   UNL A   1      -7.888 -11.808  52.356  1.00  0.00    +0.080 A 
ATOM     29  C   UNL A   1      -8.101 -10.607  53.039  1.00  0.00    +0.025 A 
BRANCH  27  30
ATOM     30  O   UNL A   1      -7.982 -13.161  50.463  1.00  0.00    -0.584 OA
ATOM     31  C   UNL A   1      -6.873 -13.881  50.988  1.00  0.00    +0.350 C 
ENDBRANCH  27  30
ENDBRANCH  23  24
ENDBRANCH  22  23
ENDBRANCH  21  22
ENDBRANCH  12  21
TORSDOF 6
ENDMDL
MODEL 7
REMARK VINA RESULT:    -8.334      3.388      4.601
REMARK INTER + INTRA:         -12.164
REMARK INTER:                 -11.326
REMARK INTRA:                  -0.838
REMARK UNBOUND:                -0.907
REMARK  Name = SCH442416
REMARK  7 active torsions:
REMARK  status: ('A' for Active; 'I' for Inactive)
REMARK    1  A    between atoms: C_9  and  C_10
REMARK    2  A    between atoms: N_17  and  C_18
REMARK    3  A    between atoms: C_18  and  C_19
REMARK    4  A    between atoms: C_19  and  C_20
REMARK    5  A    between atoms: C_20  and  C_21
REMARK    6  A    between atoms: C_24  and  O_25
REMARK    7  A    between atoms: O_25  and  C_26
REMARK                            x       y       z     vdW  Elec       q    Type
REMARK                         _______ _______ _______ _____ _____    ______ ____
ROOT
ATOM      1  N   UNL A   1      -9.496 -12.561  54.525  1.00  0.00    -0.171 NA
ATOM      2  N   UNL A   1      -9.748 -11.567  55.411  1.00  0.00    -0.196 N 
ATOM      3  C   UNL A   1     -10.467 -11.705  56.635  1.00  0.00    +0.165 A 
ATOM      4  N   UNL A   1     -10.632 -10.677  57.451  1.00  0.00    -0.214 NA
ATOM      5  C   UNL A   1     -10.090  -9.494  57.014  1.00  0.00    +0.145 A 
ATOM      6  C   UNL A   1      -9.385  -9.244  55.857  1.00  0.00    +0.125 A 
ATOM      7  C   UNL A   1      -9.190 -10.394  54.996  1.00  0.00    +0.171 A 
ATOM      8  N   UNL A   1      -8.565 -10.550  53.863  1.00  0.00    -0.206 NA
ATOM      9  C   UNL A   1      -8.786 -11.892  53.593  1.00  0.00    +0.200 A 
ATOM     10  C   UNL A   1      -9.059  -7.898  55.838  1.00  0.00    +0.226 A 
ATOM     11  N   UNL A   1      -9.517  -7.282  56.935  1.00  0.00    -0.260 NA
ATOM     12  N   UNL A   1     -10.145  -8.268  57.635  1.00  0.00    -0.297 N 
ATOM     13  N   UNL A   1     -10.974 -12.944  56.951  1.00  0.00    -0.362 N 
ATOM     14  H   UNL A   1     -10.569 -13.733  56.449  1.00  0.00    +0.193 HD
ATOM     15  H   UNL A   1     -11.163 -13.098  57.932  1.00  0.00    +0.193 HD
ENDROOT
BRANCH   9  16
ATOM     16  C   UNL A   1      -8.265 -12.501  52.329  1.00  0.00    +0.133 A 
ATOM     17  O   UNL A   1      -8.704 -12.243  51.059  1.00  0.00    -0.525 OA
ATOM     18  C   UNL A   1      -7.933 -12.973  50.211  1.00  0.00    +0.208 A 
ATOM     19  C   UNL A   1      -7.014 -13.719  50.912  1.00  0.00    +0.091 A 
ATOM     20  C   UNL A   1      -7.229 -13.416  52.276  1.00  0.00    +0.124 A 
ENDBRANCH   9  16
BRANCH  12  21
ATOM     21  C   UNL A   1     -10.781  -7.937  58.897  1.00  0.00    +0.201 C 
BRANCH  21  22
ATOM     22  C   UNL A   1      -9.779  -7.911  60.046  1.00  0.00    +0.060 C 
BRANCH  22  23
ATOM     23  C   UNL A   1      -9.286  -9.315  60.400  1.00  0.00    +0.063 C 
BRANCH  23  24
ATOM     24  C   UNL A   1     -10.207  -9.981  61.394  1.00  0.00    -0.076 A 
ATOM     25  C   UNL A   1     -10.166  -9.626  62.748  1.00  0.00    +0.025 A 
ATOM     26  C   UNL A   1     -10.986 -10.271  63.682  1.00  0.00    +0.080 A 
ATOM     27  C   UNL A   1     -11.855 -11.281  63.274  1.00  0.00    +0.033 A 
ATOM     28  C   UNL A   1     -11.898 -11.638  61.925  1.00  0.00    +0.080 A 
ATOM     29  C   UNL A   1     -11.080 -10.996  60.991  1.00  0.00    +0.025 A 
BRANCH  27  30
ATOM     30  O   UNL A   1     -12.699 -11.991  64.084  1.00  0.00    -0.584 OA
ATOM     31  C   UNL A   1     -13.807 -12.625  63.455  1.00  0.00    +0.350 C 
ENDBRANCH  27  30
ENDBRANCH  23  24
ENDBRANCH  22  23
ENDBRANCH  21  22
ENDBRANCH  12  21
TORSDOF 6
ENDMDL
MODEL 8
REMARK VINA RESULT:    -8.314      3.045      4.416
REMARK INTER + INTRA:         -12.138
REMARK INTER:                 -11.514
REMARK INTRA:                  -0.623
REMARK UNBOUND:                -0.907
REMARK  Name = SCH442416
REMARK  7 active torsions:
REMARK  status: ('A' for Active; 'I' for Inactive)
REMARK    1  A    between atoms: C_9  and  C_10
REMARK    2  A    between atoms: N_17  and  C_18
REMARK    3  A    between atoms: C_18  and  C_19
REMARK    4  A    between atoms: C_19  and  C_20
REMARK    5  A    between atoms: C_20  and  C_21
REMARK    6  A    between atoms: C_24  and  O_25
REMARK    7  A    between atoms: O_25  and  C_26
REMARK                            x       y       z     vdW  Elec       q    Type
REMARK                         _______ _______ _______ _____ _____    ______ ____
ROOT
ATOM      1  N   UNL A   1      -8.113 -10.510  52.893  1.00  0.00    -0.171 NA
ATOM      2  N   UNL A   1      -8.654 -10.215  54.100  1.00  0.00    -0.196 N 
ATOM      3  C   UNL A   1      -8.782  -8.908  54.657  1.00  0.00    +0.165 A 
ATOM      4  N   UNL A   1      -9.358  -8.720  55.833  1.00  0.00    -0.214 NA
ATOM      5  C   UNL A   1      -9.781  -9.863  56.465  1.00  0.00    +0.145 A 
ATOM      6  C   UNL A   1      -9.706 -11.167  56.027  1.00  0.00    +0.125 A 
ATOM      7  C   UNL A   1      -9.101 -11.344  54.721  1.00  0.00    +0.171 A 
ATOM      8  N   UNL A   1      -8.889 -12.397  53.984  1.00  0.00    -0.206 NA
ATOM      9  C   UNL A   1      -8.264 -11.852  52.873  1.00  0.00    +0.200 A 
ATOM     10  C   UNL A   1     -10.242 -11.980  57.012  1.00  0.00    +0.226 A 
ATOM     11  N   UNL A   1     -10.664 -11.250  58.053  1.00  0.00    -0.260 NA
ATOM     12  N   UNL A   1     -10.371  -9.966  57.703  1.00  0.00    -0.297 N 
ATOM     13  N   UNL A   1      -8.303  -7.845  53.928  1.00  0.00    -0.362 N 
ATOM     14  H   UNL A   1      -8.151  -8.016  52.936  1.00  0.00    +0.193 HD
ATOM     15  H   UNL A   1      -8.698  -6.945  54.163  1.00  0.00    +0.193 HD
ENDROOT
BRANCH   9  16
ATOM     16  C   UNL A   1      -7.796 -12.739  51.762  1.00  0.00    +0.133 A 
ATOM     17  O   UNL A   1      -8.297 -12.784  50.490  1.00  0.00    -0.525 OA
ATOM     18  C   UNL A   1      -7.558 -13.692  49.799  1.00  0.00    +0.208 A 
ATOM     19  C   UNL A   1      -6.600 -14.255  50.610  1.00  0.00    +0.091 A 
ATOM     20  C   UNL A   1      -6.753 -13.642  51.874  1.00  0.00    +0.124 A 
ENDBRANCH   9  16
BRANCH  12  21
ATOM     21  C   UNL A   1     -10.688  -8.896  58.630  1.00  0.00    +0.201 C 
BRANCH  21  22
ATOM     22  C   UNL A   1      -9.446  -8.391  59.356  1.00  0.00    +0.060 C 
BRANCH  22  23
ATOM     23  C   UNL A   1      -9.168  -9.191  60.630  1.00  0.00    +0.063 C 
BRANCH  23  24
ATOM     24  C   UNL A   1      -9.279  -8.317  61.856  1.00  0.00    -0.076 A 
ATOM     25  C   UNL A   1     -10.128  -7.205  61.861  1.00  0.00    +0.025 A 
ATOM     26  C   UNL A   1     -10.202  -6.365  62.979  1.00  0.00    +0.080 A 
ATOM     27  C   UNL A   1      -9.423  -6.626  64.105  1.00  0.00    +0.033 A 
ATOM     28  C   UNL A   1      -8.574  -7.735  64.104  1.00  0.00    +0.080 A 
ATOM     29  C   UNL A   1      -8.499  -8.574  62.989  1.00  0.00    +0.025 A 
BRANCH  27  30
ATOM     30  O   UNL A   1      -9.396  -5.883  65.254  1.00  0.00    -0.584 OA
ATOM     31  C   UNL A   1     -10.228  -6.322  66.322  1.00  0.00    +0.350 C 
ENDBRANCH  27  30
ENDBRANCH  23  24
ENDBRANCH  22  23
ENDBRANCH  21  22
ENDBRANCH  12  21
TORSDOF 6
ENDMDL
MODEL 9
REMARK VINA RESULT:    -8.301      2.943      9.483
REMARK INTER + INTRA:         -12.121
REMARK INTER:                 -11.634
REMARK INTRA:                  -0.487
REMARK UNBOUND:                -0.907
REMARK  Name = SCH442416
REMARK  7 active torsions:
REMARK  status: ('A' for Active; 'I' for Inactive)
REMARK    1  A    between atoms: C_9  and  C_10
REMARK    2  A    between atoms: N_17  and  C_18
REMARK    3  A    between atoms: C_18  and  C_19
REMARK    4  A    between atoms: C_19  and  C_20
REMARK    5  A    between atoms: C_20  and  C_21
REMARK    6  A    between atoms: C_24  and  O_25
REMARK    7  A    between atoms: O_25  and  C_26
REMARK                            x       y       z     vdW  Elec       q    Type
REMARK                         _______ _______ _______ _____ _____    ______ ____
ROOT
ATOM      1  N   UNL A   1     -11.071 -11.041  60.310  1.00  0.00    -0.171 NA
ATOM      2  N   UNL A   1     -10.590 -10.628  59.112  1.00  0.00    -0.196 N 
ATOM      3  C   UNL A   1     -10.231 -11.474  58.022  1.00  0.00    +0.165 A 
ATOM      4  N   UNL A   1      -9.799 -10.970  56.878  1.00  0.00    -0.214 NA
ATOM      5  C   UNL A   1      -9.702  -9.601  56.844  1.00  0.00    +0.145 A 
ATOM      6  C   UNL A   1     -10.014  -8.690  57.830  1.00  0.00    +0.125 A 
ATOM      7  C   UNL A   1     -10.515  -9.266  59.062  1.00  0.00    +0.171 A 
ATOM      8  N   UNL A   1     -10.931  -8.736  60.178  1.00  0.00    -0.206 NA
ATOM      9  C   UNL A   1     -11.250  -9.855  60.930  1.00  0.00    +0.200 A 
ATOM     10  C   UNL A   1      -9.732  -7.424  57.346  1.00  0.00    +0.226 A 
ATOM     11  N   UNL A   1      -9.265  -7.487  56.093  1.00  0.00    -0.260 NA
ATOM     12  N   UNL A   1      -9.250  -8.819  55.807  1.00  0.00    -0.297 N 
ATOM     13  N   UNL A   1     -10.360 -12.833  58.190  1.00  0.00    -0.362 N 
ATOM     14  H   UNL A   1     -10.961 -13.133  58.956  1.00  0.00    +0.193 HD
ATOM     15  H   UNL A   1     -10.436 -13.370  57.336  1.00  0.00    +0.193 HD
ENDROOT
BRANCH   9  16
ATOM     16  C   UNL A   1     -11.741  -9.702  62.336  1.00  0.00    +0.133 A 
ATOM     17  O   UNL A   1     -13.032  -9.478  62.728  1.00  0.00    -0.525 OA
ATOM     18  C   UNL A   1     -13.040  -9.447  64.087  1.00  0.00    +0.208 A 
ATOM     19  C   UNL A   1     -11.770  -9.625  64.583  1.00  0.00    +0.091 A 
ATOM     20  C   UNL A   1     -10.932  -9.788  63.456  1.00  0.00    +0.124 A 
ENDBRANCH   9  16
BRANCH  12  21
ATOM     21  C   UNL A   1      -8.774  -9.253  54.507  1.00  0.00    +0.201 C 
BRANCH  21  22
ATOM     22  C   UNL A   1      -8.887  -8.145  53.465  1.00  0.00    +0.060 C 
BRANCH  22  23
ATOM     23  C   UNL A   1      -7.870  -8.322  52.336  1.00  0.00    +0.063 C 
BRANCH  23  24
ATOM     24  C   UNL A   1      -7.843  -9.751  51.847  1.00  0.00    -0.076 A 
ATOM     25  C   UNL A   1      -8.863 -10.237  51.020  1.00  0.00    +0.025 A 
ATOM     26  C   UNL A   1      -8.867 -11.573  50.598  1.00  0.00    +0.080 A 
ATOM     27  C   UNL A   1      -7.853 -12.439  51.003  1.00  0.00    +0.033 A 
ATOM     28  C   UNL A   1      -6.835 -11.958  51.829  1.00  0.00    +0.080 A 
ATOM     29  C   UNL A   1      -6.829 -10.625  52.251  1.00  0.00    +0.025 A 
BRANCH  27  30
ATOM     30  O   UNL A   1      -7.746 -13.762  50.670  1.00  0.00    -0.584 OA
ATOM     31  C   UNL A   1      -6.435 -14.317  50.662  1.00  0.00    +0.350 C 
ENDBRANCH  27  30
ENDBRANCH  23  24
ENDBRANCH  22  23
ENDBRANCH  21  22
ENDBRANCH  12  21
TORSDOF 6
ENDMDL
MODEL 10
REMARK VINA RESULT:    -8.298      3.294      4.457
REMARK INTER + INTRA:         -12.117
REMARK INTER:                 -11.461
REMARK INTRA:                  -0.656
REMARK UNBOUND:                -0.907
REMARK  Name = SCH442416
REMARK  7 active torsions:
REMARK  status: ('A' for Active; 'I' for Inactive)
REMARK    1  A    between atoms: C_9  and  C_10
REMARK    2  A    between atoms: N_17  and  C_18
REMARK    3  A    between atoms: C_18  and  C_19
REMARK    4  A    between atoms: C_19  and  C_20
REMARK    5  A    between atoms: C_20  and  C_21
REMARK    6  A    between atoms: C_24  and  O_25
REMARK    7  A    between atoms: O_25  and  C_26
REMARK                            x       y       z     vdW  Elec       q    Type
REMARK                         _______ _______ _______ _____ _____    ______ ____
ROOT
ATOM      1  N   UNL A   1      -9.457 -12.607  54.253  1.00  0.00    -0.171 NA
ATOM      2  N   UNL A   1      -9.672 -11.597  55.130  1.00  0.00    -0.196 N 
ATOM      3  C   UNL A   1     -10.372 -11.705  56.368  1.00  0.00    +0.165 A 
ATOM      4  N   UNL A   1     -10.501 -10.664  57.174  1.00  0.00    -0.214 NA
ATOM      5  C   UNL A   1      -9.943  -9.497  56.712  1.00  0.00    +0.145 A 
ATOM      6  C   UNL A   1      -9.254  -9.277  55.540  1.00  0.00    +0.125 A 
ATOM      7  C   UNL A   1      -9.097 -10.441  54.691  1.00  0.00    +0.171 A 
ATOM      8  N   UNL A   1      -8.496 -10.624  53.549  1.00  0.00    -0.206 NA
ATOM      9  C   UNL A   1      -8.750 -11.964  53.299  1.00  0.00    +0.200 A 
ATOM     10  C   UNL A   1      -8.901  -7.939  55.497  1.00  0.00    +0.226 A 
ATOM     11  N   UNL A   1      -9.326  -7.299  56.594  1.00  0.00    -0.260 NA
ATOM     12  N   UNL A   1      -9.961  -8.263  57.319  1.00  0.00    -0.297 N 
ATOM     13  N   UNL A   1     -10.898 -12.929  56.708  1.00  0.00    -0.362 N 
ATOM     14  H   UNL A   1     -10.519 -13.733  56.210  1.00  0.00    +0.193 HD
ATOM     15  H   UNL A   1     -11.073 -13.067  57.695  1.00  0.00    +0.193 HD
ENDROOT
BRANCH   9  16
ATOM     16  C   UNL A   1      -8.263 -12.599  52.034  1.00  0.00    +0.133 A 
ATOM     17  O   UNL A   1      -8.758 -12.391  50.776  1.00  0.00    -0.525 OA
ATOM     18  C   UNL A   1      -8.003 -13.129  49.920  1.00  0.00    +0.208 A 
ATOM     19  C   UNL A   1      -7.040 -13.832  50.606  1.00  0.00    +0.091 A 
ATOM     20  C   UNL A   1      -7.208 -13.492  51.968  1.00  0.00    +0.124 A 
ENDBRANCH   9  16
BRANCH  12  21
ATOM     21  C   UNL A   1     -10.569  -7.903  58.587  1.00  0.00    +0.201 C 
BRANCH  21  22
ATOM     22  C   UNL A   1      -9.623  -8.151  59.757  1.00  0.00    +0.060 C 
BRANCH  22  23
ATOM     23  C   UNL A   1      -9.871  -9.512  60.409  1.00  0.00    +0.063 C 
BRANCH  23  24
ATOM     24  C   UNL A   1      -9.747  -9.426  61.911  1.00  0.00    -0.076 A 
ATOM     25  C   UNL A   1     -10.667 -10.080  62.738  1.00  0.00    +0.025 A 
ATOM     26  C   UNL A   1     -10.584  -9.968  64.132  1.00  0.00    +0.080 A 
ATOM     27  C   UNL A   1      -9.579  -9.198  64.715  1.00  0.00    +0.033 A 
ATOM     28  C   UNL A   1      -8.659  -8.544  63.893  1.00  0.00    +0.080 A 
ATOM     29  C   UNL A   1      -8.741  -8.653  62.502  1.00  0.00    +0.025 A 
BRANCH  27  30
ATOM     30  O   UNL A   1      -9.392  -9.001  66.056  1.00  0.00    -0.584 OA
ATOM     31  C   UNL A   1      -8.972 -10.128  66.817  1.00  0.00    +0.350 C 
ENDBRANCH  27  30
ENDBRANCH  23  24
ENDBRANCH  22  23
ENDBRANCH  21  22
ENDBRANCH  12  21
TORSDOF 6
ENDMDL
MODEL 11
REMARK VINA RESULT:    -8.257      3.485      9.793
REMARK INTER + INTRA:         -12.061
REMARK INTER:                 -11.332
REMARK INTRA:                  -0.729
REMARK UNBOUND:                -0.907
REMARK  Name = SCH442416
REMARK  7 active torsions:
REMARK  status: ('A' for Active; 'I' for Inactive)
REMARK    1  A    between atoms: C_9  and  C_10
REMARK    2  A    between atoms: N_17  and  C_18
REMARK    3  A    between atoms: C_18  and  C_19
REMARK    4  A    between atoms: C_19  and  C_20
REMARK    5  A    between atoms: C_20  and  C_21
REMARK    6  A    between atoms: C_24  and  O_25
REMARK    7  A    between atoms: O_25  and  C_26
REMARK                            x       y       z     vdW  Elec       q    Type
REMARK                         _______ _______ _______ _____ _____    ______ ____
ROOT
ATOM      1  N   UNL A   1     -11.047 -12.866  60.599  1.00  0.00    -0.171 NA
ATOM      2  N   UNL A   1     -10.719 -11.719  59.956  1.00  0.00    -0.196 N 
ATOM      3  C   UNL A   1      -9.839 -11.613  58.839  1.00  0.00    +0.165 A 
ATOM      4  N   UNL A   1      -9.608 -10.447  58.258  1.00  0.00    -0.214 NA
ATOM      5  C   UNL A   1     -10.248  -9.375  58.829  1.00  0.00    +0.145 A 
ATOM      6  C   UNL A   1     -11.110  -9.358  59.904  1.00  0.00    +0.125 A 
ATOM      7  C   UNL A   1     -11.372 -10.653  60.501  1.00  0.00    +0.171 A 
ATOM      8  N   UNL A   1     -12.135 -11.030  61.489  1.00  0.00    -0.206 NA
ATOM      9  C   UNL A   1     -11.899 -12.395  61.533  1.00  0.00    +0.200 A 
ATOM     10  C   UNL A   1     -11.487  -8.046  60.128  1.00  0.00    +0.226 A 
ATOM     11  N   UNL A   1     -10.913  -7.227  59.238  1.00  0.00    -0.260 NA
ATOM     12  N   UNL A   1     -10.160  -8.053  58.459  1.00  0.00    -0.297 N 
ATOM     13  N   UNL A   1      -9.247 -12.763  58.371  1.00  0.00    -0.362 N 
ATOM     14  H   UNL A   1      -9.683 -13.638  58.657  1.00  0.00    +0.193 HD
ATOM     15  H   UNL A   1      -8.924 -12.726  57.414  1.00  0.00    +0.193 HD
ENDROOT
BRANCH   9  16
ATOM     16  C   UNL A   1     -12.560 -13.239  62.578  1.00  0.00    +0.133 A 
ATOM     17  O   UNL A   1     -13.734 -12.964  63.224  1.00  0.00    -0.525 OA
ATOM     18  C   UNL A   1     -13.988 -14.008  64.056  1.00  0.00    +0.208 A 
ATOM     19  C   UNL A   1     -12.985 -14.946  63.979  1.00  0.00    +0.091 A 
ATOM     20  C   UNL A   1     -12.065 -14.450  63.027  1.00  0.00    +0.124 A 
ENDBRANCH   9  16
BRANCH  12  21
ATOM     21  C   UNL A   1      -9.375  -7.481  57.381  1.00  0.00    +0.201 C 
BRANCH  21  22
ATOM     22  C   UNL A   1      -9.977  -7.796  56.016  1.00  0.00    +0.060 C 
BRANCH  22  23
ATOM     23  C   UNL A   1      -9.091  -7.292  54.875  1.00  0.00    +0.063 C 
BRANCH  23  24
ATOM     24  C   UNL A   1      -8.558  -8.440  54.052  1.00  0.00    -0.076 A 
ATOM     25  C   UNL A   1      -7.950  -8.203  52.814  1.00  0.00    +0.025 A 
ATOM     26  C   UNL A   1      -7.493  -9.267  52.026  1.00  0.00    +0.080 A 
ATOM     27  C   UNL A   1      -7.641 -10.580  52.466  1.00  0.00    +0.033 A 
ATOM     28  C   UNL A   1      -8.248 -10.820  53.700  1.00  0.00    +0.080 A 
ATOM     29  C   UNL A   1      -8.706  -9.761  54.488  1.00  0.00    +0.025 A 
BRANCH  27  30
ATOM     30  O   UNL A   1      -7.247 -11.704  51.791  1.00  0.00    -0.584 OA
ATOM     31  C   UNL A   1      -6.857 -12.822  52.581  1.00  0.00    +0.350 C 
ENDBRANCH  27  30
ENDBRANCH  23  24
ENDBRANCH  22  23
ENDBRANCH  21  22
ENDBRANCH  12  21
TORSDOF 6
ENDMDL
MODEL 12
REMARK VINA RESULT:    -8.245      2.047      3.272
REMARK INTER + INTRA:         -12.044
REMARK INTER:                 -11.323
REMARK INTRA:                  -0.720
REMARK UNBOUND:                -0.907
REMARK  Name = SCH442416
REMARK  7 active torsions:
REMARK  status: ('A' for Active; 'I' for Inactive)
REMARK    1  A    between atoms: C_9  and  C_10
REMARK    2  A    between atoms: N_17  and  C_18
REMARK    3  A    between atoms: C_18  and  C_19
REMARK    4  A    between atoms: C_19  and  C_20
REMARK    5  A    between atoms: C_20  and  C_21
REMARK    6  A    between atoms: C_24  and  O_25
REMARK    7  A    between atoms: O_25  and  C_26
REMARK                            x       y       z     vdW  Elec       q    Type
REMARK                         _______ _______ _______ _____ _____    ______ ____
ROOT
ATOM      1  N   UNL A   1      -8.207  -6.999  54.061  1.00  0.00    -0.171 NA
ATOM      2  N   UNL A   1      -8.734  -7.775  55.039  1.00  0.00    -0.196 N 
ATOM      3  C   UNL A   1      -9.178  -7.318  56.315  1.00  0.00    +0.165 A 
ATOM      4  N   UNL A   1      -9.710  -8.152  57.193  1.00  0.00    -0.214 NA
ATOM      5  C   UNL A   1      -9.768  -9.463  56.790  1.00  0.00    +0.145 A 
ATOM      6  C   UNL A   1      -9.368 -10.016  55.593  1.00  0.00    +0.125 A 
ATOM      7  C   UNL A   1      -8.818  -9.075  54.636  1.00  0.00    +0.171 A 
ATOM      8  N   UNL A   1      -8.373  -9.216  53.419  1.00  0.00    -0.206 NA
ATOM      9  C   UNL A   1      -7.989  -7.923  53.100  1.00  0.00    +0.200 A 
ATOM     10  C   UNL A   1      -9.602 -11.379  55.652  1.00  0.00    +0.226 A 
ATOM     11  N   UNL A   1     -10.142 -11.718  56.829  1.00  0.00    -0.260 NA
ATOM     12  N   UNL A   1     -10.231 -10.541  57.509  1.00  0.00    -0.297 N 
ATOM     13  N   UNL A   1      -9.051  -5.979  56.602  1.00  0.00    -0.362 N 
ATOM     14  H   UNL A   1      -8.919  -5.361  55.803  1.00  0.00    +0.193 HD
ATOM     15  H   UNL A   1      -9.661  -5.632  57.329  1.00  0.00    +0.193 HD
ENDROOT
BRANCH   9  16
ATOM     16  C   UNL A   1      -7.365  -7.629  51.771  1.00  0.00    +0.133 A 
ATOM     17  O   UNL A   1      -6.848  -6.430  51.362  1.00  0.00    -0.525 OA
ATOM     18  C   UNL A   1      -6.348  -6.615  50.112  1.00  0.00    +0.208 A 
ATOM     19  C   UNL A   1      -6.553  -7.909  49.693  1.00  0.00    +0.091 A 
ATOM     20  C   UNL A   1      -7.209  -8.562  50.762  1.00  0.00    +0.124 A 
ENDBRANCH   9  16
BRANCH  12  21
ATOM     21  C   UNL A   1     -10.771 -10.546  58.856  1.00  0.00    +0.201 C 
BRANCH  21  22
ATOM     22  C   UNL A   1      -9.692 -10.837  59.895  1.00  0.00    +0.060 C 
BRANCH  22  23
ATOM     23  C   UNL A   1      -9.025  -9.555  60.394  1.00  0.00    +0.063 C 
BRANCH  23  24
ATOM     24  C   UNL A   1      -9.264  -9.357  61.872  1.00  0.00    -0.076 A 
ATOM     25  C   UNL A   1      -8.364  -8.612  62.643  1.00  0.00    +0.025 A 
ATOM     26  C   UNL A   1      -8.557  -8.461  64.022  1.00  0.00    +0.080 A 
ATOM     27  C   UNL A   1      -9.650  -9.057  64.647  1.00  0.00    +0.033 A 
ATOM     28  C   UNL A   1     -10.550  -9.802  63.881  1.00  0.00    +0.080 A 
ATOM     29  C   UNL A   1     -10.359  -9.954  62.505  1.00  0.00    +0.025 A 
BRANCH  27  30
ATOM     30  O   UNL A   1      -9.947  -8.994  65.982  1.00  0.00    -0.584 OA
ATOM     31  C   UNL A   1      -8.864  -9.168  66.888  1.00  0.00    +0.350 C 
ENDBRANCH  27  30
ENDBRANCH  23  24
ENDBRANCH  22  23
ENDBRANCH  21  22
ENDBRANCH  12  21
TORSDOF 6
ENDMDL
MODEL 13
REMARK VINA RESULT:    -8.241      3.174      8.894
REMARK INTER + INTRA:         -12.039
REMARK INTER:                 -11.495
REMARK INTRA:                  -0.544
REMARK UNBOUND:                -0.907
REMARK  Name = SCH442416
REMARK  7 active torsions:
REMARK  status: ('A' for Active; 'I' for Inactive)
REMARK    1  A    between atoms: C_9  and  C_10
REMARK    2  A    between atoms: N_17  and  C_18
REMARK    3  A    between atoms: C_18  and  C_19
REMARK    4  A    between atoms: C_19  and  C_20
REMARK    5  A    between atoms: C_20  and  C_21
REMARK    6  A    between atoms: C_24  and  O_25
REMARK    7  A    between atoms: O_25  and  C_26
REMARK                            x       y       z     vdW  Elec       q    Type
REMARK                         _______ _______ _______ _____ _____    ______ ____
ROOT
ATOM      1  N   UNL A   1     -11.278  -6.688  60.714  1.00  0.00    -0.171 NA
ATOM      2  N   UNL A   1     -10.897  -7.839  60.108  1.00  0.00    -0.196 N 
ATOM      3  C   UNL A   1     -10.261  -7.940  58.835  1.00  0.00    +0.165 A 
ATOM      4  N   UNL A   1      -9.898  -9.112  58.343  1.00  0.00    -0.214 NA
ATOM      5  C   UNL A   1     -10.204 -10.195  59.130  1.00  0.00    +0.145 A 
ATOM      6  C   UNL A   1     -10.816 -10.218  60.364  1.00  0.00    +0.125 A 
ATOM      7  C   UNL A   1     -11.175  -8.918  60.896  1.00  0.00    +0.171 A 
ATOM      8  N   UNL A   1     -11.728  -8.546  62.017  1.00  0.00    -0.206 NA
ATOM      9  C   UNL A   1     -11.791  -7.169  61.866  1.00  0.00    +0.200 A 
ATOM     10  C   UNL A   1     -10.933 -11.539  60.759  1.00  0.00    +0.226 A 
ATOM     11  N   UNL A   1     -10.415 -12.359  59.836  1.00  0.00    -0.260 NA
ATOM     12  N   UNL A   1      -9.980 -11.523  58.851  1.00  0.00    -0.297 N 
ATOM     13  N   UNL A   1     -10.023  -6.778  58.139  1.00  0.00    -0.362 N 
ATOM     14  H   UNL A   1     -10.050  -5.917  58.683  1.00  0.00    +0.193 HD
ATOM     15  H   UNL A   1      -9.294  -6.833  57.441  1.00  0.00    +0.193 HD
ENDROOT
BRANCH   9  16
ATOM     16  C   UNL A   1     -12.413  -6.324  62.933  1.00  0.00    +0.133 A 
ATOM     17  O   UNL A   1     -13.650  -5.741  62.893  1.00  0.00    -0.525 OA
ATOM     18  C   UNL A   1     -13.832  -5.102  64.078  1.00  0.00    +0.208 A 
ATOM     19  C   UNL A   1     -12.723  -5.240  64.879  1.00  0.00    +0.091 A 
ATOM     20  C   UNL A   1     -11.808  -6.026  64.141  1.00  0.00    +0.124 A 
ENDBRANCH   9  16
BRANCH  12  21
ATOM     21  C   UNL A   1      -9.366 -12.092  57.666  1.00  0.00    +0.201 C 
BRANCH  21  22
ATOM     22  C   UNL A   1     -10.047 -11.610  56.390  1.00  0.00    +0.060 C 
BRANCH  22  23
ATOM     23  C   UNL A   1      -9.153 -11.801  55.163  1.00  0.00    +0.063 C 
BRANCH  23  24
ATOM     24  C   UNL A   1      -8.831 -10.477  54.512  1.00  0.00    -0.076 A 
ATOM     25  C   UNL A   1      -8.231 -10.435  53.248  1.00  0.00    +0.025 A 
ATOM     26  C   UNL A   1      -7.890  -9.211  52.659  1.00  0.00    +0.080 A 
ATOM     27  C   UNL A   1      -8.141  -8.015  53.328  1.00  0.00    +0.033 A 
ATOM     28  C   UNL A   1      -8.738  -8.054  54.590  1.00  0.00    +0.080 A 
ATOM     29  C   UNL A   1      -9.080  -9.274  55.181  1.00  0.00    +0.025 A 
BRANCH  27  30
ATOM     30  O   UNL A   1      -7.850  -6.759  52.869  1.00  0.00    -0.584 OA
ATOM     31  C   UNL A   1      -7.961  -5.693  53.804  1.00  0.00    +0.350 C 
ENDBRANCH  27  30
ENDBRANCH  23  24
ENDBRANCH  22  23
ENDBRANCH  21  22
ENDBRANCH  12  21
TORSDOF 6
ENDMDL
MODEL 14
REMARK VINA RESULT:    -8.232      3.136      4.655
REMARK INTER + INTRA:         -12.027
REMARK INTER:                 -11.247
REMARK INTRA:                  -0.781
REMARK UNBOUND:                -0.907
REMARK  Name = SCH442416
REMARK  7 active torsions:
REMARK  status: ('A' for Active; 'I' for Inactive)
REMARK    1  A    between atoms: C_9  and  C_10
REMARK    2  A    between atoms: N_17  and  C_18
REMARK    3  A    between atoms: C_18  and  C_19
REMARK    4  A    between atoms: C_19  and  C_20
REMARK    5  A    between atoms: C_20  and  C_21
REMARK    6  A    between atoms: C_24  and  O_25
REMARK    7  A    between atoms: O_25  and  C_26
REMARK                            x       y       z     vdW  Elec       q    Type
REMARK                         _______ _______ _______ _____ _____    ______ ____
ROOT
ATOM      1  N   UNL A   1      -8.113 -10.180  53.128  1.00  0.00    -0.171 NA
ATOM      2  N   UNL A   1      -8.658  -9.780  54.303  1.00  0.00    -0.196 N 
ATOM      3  C   UNL A   1      -8.774  -8.431  54.751  1.00  0.00    +0.165 A 
ATOM      4  N   UNL A   1      -9.354  -8.141  55.903  1.00  0.00    -0.214 NA
ATOM      5  C   UNL A   1      -9.795  -9.223  56.623  1.00  0.00    +0.145 A 
ATOM      6  C   UNL A   1      -9.732 -10.560  56.295  1.00  0.00    +0.125 A 
ATOM      7  C   UNL A   1      -9.122 -10.849  55.012  1.00  0.00    +0.171 A 
ATOM      8  N   UNL A   1      -8.918 -11.962  54.364  1.00  0.00    -0.206 NA
ATOM      9  C   UNL A   1      -8.281 -11.517  53.217  1.00  0.00    +0.200 A 
ATOM     10  C   UNL A   1     -10.284 -11.282  57.339  1.00  0.00    +0.226 A 
ATOM     11  N   UNL A   1     -10.703 -10.466  58.313  1.00  0.00    -0.260 NA
ATOM     12  N   UNL A   1     -10.393  -9.218  57.862  1.00  0.00    -0.297 N 
ATOM     13  N   UNL A   1      -8.277  -7.437  53.940  1.00  0.00    -0.362 N 
ATOM     14  H   UNL A   1      -8.121  -7.690  52.966  1.00  0.00    +0.193 HD
ATOM     15  H   UNL A   1      -8.663  -6.516  54.098  1.00  0.00    +0.193 HD
ENDROOT
BRANCH   9  16
ATOM     16  C   UNL A   1      -7.816 -12.497  52.185  1.00  0.00    +0.133 A 
ATOM     17  O   UNL A   1      -8.228 -12.566  50.882  1.00  0.00    -0.525 OA
ATOM     18  C   UNL A   1      -7.527 -13.568  50.291  1.00  0.00    +0.208 A 
ATOM     19  C   UNL A   1      -6.682 -14.168  51.196  1.00  0.00    +0.091 A 
ATOM     20  C   UNL A   1      -6.869 -13.479  52.416  1.00  0.00    +0.124 A 
ENDBRANCH   9  16
BRANCH  12  21
ATOM     21  C   UNL A   1     -10.703  -8.071  58.696  1.00  0.00    +0.201 C 
BRANCH  21  22
ATOM     22  C   UNL A   1     -10.032  -8.169  60.062  1.00  0.00    +0.060 C 
BRANCH  22  23
ATOM     23  C   UNL A   1     -11.027  -7.938  61.200  1.00  0.00    +0.063 C 
BRANCH  23  24
ATOM     24  C   UNL A   1     -11.670  -9.233  61.633  1.00  0.00    -0.076 A 
ATOM     25  C   UNL A   1     -12.925  -9.604  61.134  1.00  0.00    +0.025 A 
ATOM     26  C   UNL A   1     -13.547 -10.783  61.564  1.00  0.00    +0.080 A 
ATOM     27  C   UNL A   1     -12.923 -11.603  62.502  1.00  0.00    +0.033 A 
ATOM     28  C   UNL A   1     -11.672 -11.236  63.002  1.00  0.00    +0.080 A 
ATOM     29  C   UNL A   1     -11.049 -10.060  62.575  1.00  0.00    +0.025 A 
BRANCH  27  30
ATOM     30  O   UNL A   1     -13.424 -12.771  63.009  1.00  0.00    -0.584 OA
ATOM     31  C   UNL A   1     -12.510 -13.853  63.151  1.00  0.00    +0.350 C 
ENDBRANCH  27  30
ENDBRANCH  23  24
ENDBRANCH  22  23
ENDBRANCH  21  22
ENDBRANCH  12  21
TORSDOF 6
ENDMDL
MODEL 15
REMARK VINA RESULT:    -8.231      1.075      1.268
REMARK INTER + INTRA:         -12.026
REMARK INTER:                 -11.220
REMARK INTRA:                  -0.806
REMARK UNBOUND:                -0.907
REMARK  Name = SCH442416
REMARK  7 active torsions:
REMARK  status: ('A' for Active; 'I' for Inactive)
REMARK    1  A    between atoms: C_9  and  C_10
REMARK    2  A    between atoms: N_17  and  C_18
REMARK    3  A    between atoms: C_18  and  C_19
REMARK    4  A    between atoms: C_19  and  C_20
REMARK    5  A    between atoms: C_20  and  C_21
REMARK    6  A    between atoms: C_24  and  O_25
REMARK    7  A    between atoms: O_25  and  C_26
REMARK                            x       y       z     vdW  Elec       q    Type
REMARK                         _______ _______ _______ _____ _____    ______ ____
ROOT
ATOM      1  N   UNL A   1      -7.710 -10.056  52.263  1.00  0.00    -0.171 NA
ATOM      2  N   UNL A   1      -8.293 -10.412  53.433  1.00  0.00    -0.196 N 
ATOM      3  C   UNL A   1      -8.577 -11.746  53.850  1.00  0.00    +0.165 A 
ATOM      4  N   UNL A   1      -9.121 -11.993  55.030  1.00  0.00    -0.214 NA
ATOM      5  C   UNL A   1      -9.408 -10.882  55.784  1.00  0.00    +0.145 A 
ATOM      6  C   UNL A   1      -9.184  -9.556  55.483  1.00  0.00    +0.125 A 
ATOM      7  C   UNL A   1      -8.557  -9.314  54.198  1.00  0.00    +0.171 A 
ATOM      8  N   UNL A   1      -8.172  -8.224  53.597  1.00  0.00    -0.206 NA
ATOM      9  C   UNL A   1      -7.670  -8.714  52.401  1.00  0.00    +0.200 A 
ATOM     10  C   UNL A   1      -9.657  -8.793  56.537  1.00  0.00    +0.226 A 
ATOM     11  N   UNL A   1     -10.163  -9.574  57.500  1.00  0.00    -0.260 NA
ATOM     12  N   UNL A   1     -10.006 -10.840  57.021  1.00  0.00    -0.297 N 
ATOM     13  N   UNL A   1      -8.254 -12.773  52.994  1.00  0.00    -0.362 N 
ATOM     14  H   UNL A   1      -7.587 -12.548  52.258  1.00  0.00    +0.193 HD
ATOM     15  H   UNL A   1      -8.142 -13.680  53.427  1.00  0.00    +0.193 HD
ENDROOT
BRANCH   9  16
ATOM     16  C   UNL A   1      -7.147  -7.772  51.362  1.00  0.00    +0.133 A 
ATOM     17  O   UNL A   1      -6.897  -8.065  50.049  1.00  0.00    -0.525 OA
ATOM     18  C   UNL A   1      -6.475  -6.919  49.455  1.00  0.00    +0.208 A 
ATOM     19  C   UNL A   1      -6.426  -5.890  50.366  1.00  0.00    +0.091 A 
ATOM     20  C   UNL A   1      -6.857  -6.439  51.595  1.00  0.00    +0.124 A 
ENDBRANCH   9  16
BRANCH  12  21
ATOM     21  C   UNL A   1     -10.472 -11.957  57.822  1.00  0.00    +0.201 C 
BRANCH  21  22
ATOM     22  C   UNL A   1      -9.714 -12.060  59.142  1.00  0.00    +0.060 C 
BRANCH  22  23
ATOM     23  C   UNL A   1     -10.638 -11.860  60.344  1.00  0.00    +0.063 C 
BRANCH  23  24
ATOM     24  C   UNL A   1     -10.411 -10.512  60.986  1.00  0.00    -0.076 A 
ATOM     25  C   UNL A   1     -11.465  -9.837  61.613  1.00  0.00    +0.025 A 
ATOM     26  C   UNL A   1     -11.271  -8.568  62.172  1.00  0.00    +0.080 A 
ATOM     27  C   UNL A   1     -10.021  -7.956  62.106  1.00  0.00    +0.033 A 
ATOM     28  C   UNL A   1      -8.967  -8.626  61.481  1.00  0.00    +0.080 A 
ATOM     29  C   UNL A   1      -9.158  -9.892  60.922  1.00  0.00    +0.025 A 
BRANCH  27  30
ATOM     30  O   UNL A   1      -9.702  -6.721  62.603  1.00  0.00    -0.584 OA
ATOM     31  C   UNL A   1      -9.773  -6.560  64.015  1.00  0.00    +0.350 C 
ENDBRANCH  27  30
ENDBRANCH  23  24
ENDBRANCH  22  23
ENDBRANCH  21  22
ENDBRANCH  12  21
TORSDOF 6
ENDMDL
MODEL 16
REMARK VINA RESULT:    -8.008      2.324      9.596
REMARK INTER + INTRA:         -11.725
REMARK INTER:                 -11.442
REMARK INTRA:                  -0.282
REMARK UNBOUND:                -0.907
REMARK  Name = SCH442416
REMARK  7 active torsions:
REMARK  status: ('A' for Active; 'I' for Inactive)
REMARK    1  A    between atoms: C_9  and  C_10
REMARK    2  A    between atoms: N_17  and  C_18
REMARK    3  A    between atoms: C_18  and  C_19
REMARK    4  A    between atoms: C_19  and  C_20
REMARK    5  A    between atoms: C_20  and  C_21
REMARK    6  A    between atoms: C_24  and  O_25
REMARK    7  A    between atoms: O_25  and  C_26
REMARK                            x       y       z     vdW  Elec       q    Type
REMARK                         _______ _______ _______ _____ _____    ______ ____
ROOT
ATOM      1  N   UNL A   1     -10.791 -11.289  60.328  1.00  0.00    -0.171 NA
ATOM      2  N   UNL A   1     -10.525 -10.666  59.154  1.00  0.00    -0.196 N 
ATOM      3  C   UNL A   1     -10.478 -11.289  57.872  1.00  0.00    +0.165 A 
ATOM      4  N   UNL A   1     -10.242 -10.585  56.778  1.00  0.00    -0.214 NA
ATOM      5  C   UNL A   1     -10.023  -9.246  56.982  1.00  0.00    +0.145 A 
ATOM      6  C   UNL A   1     -10.038  -8.541  58.166  1.00  0.00    +0.125 A 
ATOM      7  C   UNL A   1     -10.332  -9.329  59.347  1.00  0.00    +0.171 A 
ATOM      8  N   UNL A   1     -10.460  -9.016  60.606  1.00  0.00    -0.206 NA
ATOM      9  C   UNL A   1     -10.725 -10.247  61.185  1.00  0.00    +0.200 A 
ATOM     10  C   UNL A   1      -9.741  -7.219  57.880  1.00  0.00    +0.226 A 
ATOM     11  N   UNL A   1      -9.546  -7.049  56.566  1.00  0.00    -0.260 NA
ATOM     12  N   UNL A   1      -9.718  -8.293  56.038  1.00  0.00    -0.297 N 
ATOM     13  N   UNL A   1     -10.700 -12.645  57.805  1.00  0.00    -0.362 N 
ATOM     14  H   UNL A   1     -11.159 -13.063  58.613  1.00  0.00    +0.193 HD
ATOM     15  H   UNL A   1     -10.998 -12.991  56.903  1.00  0.00    +0.193 HD
ENDROOT
BRANCH   9  16
ATOM     16  C   UNL A   1     -10.903 -10.359  62.667  1.00  0.00    +0.133 A 
ATOM     17  O   UNL A   1     -10.225  -9.655  63.624  1.00  0.00    -0.525 OA
ATOM     18  C   UNL A   1     -10.724 -10.033  64.830  1.00  0.00    +0.208 A 
ATOM     19  C   UNL A   1     -11.701 -10.989  64.673  1.00  0.00    +0.091 A 
ATOM     20  C   UNL A   1     -11.816 -11.200  63.280  1.00  0.00    +0.124 A 
ENDBRANCH   9  16
BRANCH  12  21
ATOM     21  C   UNL A   1      -9.559  -8.477  54.607  1.00  0.00    +0.201 C 
BRANCH  21  22
ATOM     22  C   UNL A   1      -8.319  -9.301  54.278  1.00  0.00    +0.060 C 
BRANCH  22  23
ATOM     23  C   UNL A   1      -8.323  -9.774  52.823  1.00  0.00    +0.063 C 
BRANCH  23  24
ATOM     24  C   UNL A   1      -7.731  -8.727  51.910  1.00  0.00    -0.076 A 
ATOM     25  C   UNL A   1      -7.438  -9.033  50.575  1.00  0.00    +0.025 A 
ATOM     26  C   UNL A   1      -6.848  -8.080  49.735  1.00  0.00    +0.080 A 
ATOM     27  C   UNL A   1      -6.540  -6.811  50.221  1.00  0.00    +0.033 A 
ATOM     28  C   UNL A   1      -6.829  -6.503  51.552  1.00  0.00    +0.080 A 
ATOM     29  C   UNL A   1      -7.418  -7.452  52.392  1.00  0.00    +0.025 A 
BRANCH  27  30
ATOM     30  O   UNL A   1      -5.958  -5.797  49.510  1.00  0.00    -0.584 OA
ATOM     31  C   UNL A   1      -6.700  -4.590  49.390  1.00  0.00    +0.350 C 
ENDBRANCH  27  30
ENDBRANCH  23  24
ENDBRANCH  22  23
ENDBRANCH  21  22
ENDBRANCH  12  21
TORSDOF 6
ENDMDL
MODEL 17
REMARK VINA RESULT:    -7.993      3.126      9.859
REMARK INTER + INTRA:         -11.704
REMARK INTER:                 -10.961
REMARK INTRA:                  -0.743
REMARK UNBOUND:                -0.907
REMARK  Name = SCH442416
REMARK  7 active torsions:
REMARK  status: ('A' for Active; 'I' for Inactive)
REMARK    1  A    between atoms: C_9  and  C_10
REMARK    2  A    between atoms: N_17  and  C_18
REMARK    3  A    between atoms: C_18  and  C_19
REMARK    4  A    between atoms: C_19  and  C_20
REMARK    5  A    between atoms: C_20  and  C_21
REMARK    6  A    between atoms: C_24  and  O_25
REMARK    7  A    between atoms: O_25  and  C_26
REMARK                            x       y       z     vdW  Elec       q    Type
REMARK                         _______ _______ _______ _____ _____    ______ ____
ROOT
ATOM      1  N   UNL A   1     -10.346  -7.517  62.130  1.00  0.00    -0.171 NA
ATOM      2  N   UNL A   1     -10.399  -8.266  61.002  1.00  0.00    -0.196 N 
ATOM      3  C   UNL A   1     -10.783  -7.800  59.710  1.00  0.00    +0.165 A 
ATOM      4  N   UNL A   1     -10.770  -8.605  58.660  1.00  0.00    -0.214 NA
ATOM      5  C   UNL A   1     -10.393  -9.898  58.923  1.00  0.00    +0.145 A 
ATOM      6  C   UNL A   1     -10.008 -10.458  60.122  1.00  0.00    +0.125 A 
ATOM      7  C   UNL A   1     -10.000  -9.547  61.250  1.00  0.00    +0.171 A 
ATOM      8  N   UNL A   1      -9.674  -9.699  62.503  1.00  0.00    -0.206 NA
ATOM      9  C   UNL A   1      -9.915  -8.436  63.020  1.00  0.00    +0.200 A 
ATOM     10  C   UNL A   1      -9.740 -11.798  59.902  1.00  0.00    +0.226 A 
ATOM     11  N   UNL A   1      -9.927 -12.115  58.614  1.00  0.00    -0.260 NA
ATOM     12  N   UNL A   1     -10.328 -10.948  58.036  1.00  0.00    -0.297 N 
ATOM     13  N   UNL A   1     -11.155  -6.482  59.583  1.00  0.00    -0.362 N 
ATOM     14  H   UNL A   1     -10.865  -5.861  60.337  1.00  0.00    +0.193 HD
ATOM     15  H   UNL A   1     -11.087  -6.100  58.650  1.00  0.00    +0.193 HD
ENDROOT
BRANCH   9  16
ATOM     16  C   UNL A   1      -9.708  -8.168  64.478  1.00  0.00    +0.133 A 
ATOM     17  O   UNL A   1      -8.651  -7.508  65.043  1.00  0.00    -0.525 OA
ATOM     18  C   UNL A   1      -8.881  -7.452  66.381  1.00  0.00    +0.208 A 
ATOM     19  C   UNL A   1     -10.060  -8.085  66.698  1.00  0.00    +0.091 A 
ATOM     20  C   UNL A   1     -10.592  -8.547  65.472  1.00  0.00    +0.124 A 
ENDBRANCH   9  16
BRANCH  12  21
ATOM     21  C   UNL A   1     -10.638 -10.936  56.619  1.00  0.00    +0.201 C 
BRANCH  21  22
ATOM     22  C   UNL A   1      -9.379 -10.810  55.766  1.00  0.00    +0.060 C 
BRANCH  22  23
ATOM     23  C   UNL A   1      -9.104  -9.357  55.373  1.00  0.00    +0.063 C 
BRANCH  23  24
ATOM     24  C   UNL A   1      -8.690  -9.254  53.925  1.00  0.00    -0.076 A 
ATOM     25  C   UNL A   1      -8.038  -8.110  53.452  1.00  0.00    +0.025 A 
ATOM     26  C   UNL A   1      -7.691  -7.990  52.101  1.00  0.00    +0.080 A 
ATOM     27  C   UNL A   1      -7.995  -9.012  51.205  1.00  0.00    +0.033 A 
ATOM     28  C   UNL A   1      -8.647 -10.155  51.672  1.00  0.00    +0.080 A 
ATOM     29  C   UNL A   1      -8.995 -10.277  53.020  1.00  0.00    +0.025 A 
BRANCH  27  30
ATOM     30  O   UNL A   1      -7.720  -9.016  49.864  1.00  0.00    -0.584 OA
ATOM     31  C   UNL A   1      -8.416  -9.969  49.069  1.00  0.00    +0.350 C 
ENDBRANCH  27  30
ENDBRANCH  23  24
ENDBRANCH  22  23
ENDBRANCH  21  22
ENDBRANCH  12  21
TORSDOF 6
ENDMDL
MODEL 18
REMARK VINA RESULT:    -7.974      3.324      4.738
REMARK INTER + INTRA:         -11.678
REMARK INTER:                 -11.108
REMARK INTRA:                  -0.571
REMARK UNBOUND:                -0.907
REMARK  Name = SCH442416
REMARK  7 active torsions:
REMARK  status: ('A' for Active; 'I' for Inactive)
REMARK    1  A    between atoms: C_9  and  C_10
REMARK    2  A    between atoms: N_17  and  C_18
REMARK    3  A    between atoms: C_18  and  C_19
REMARK    4  A    between atoms: C_19  and  C_20
REMARK    5  A    between atoms: C_20  and  C_21
REMARK    6  A    between atoms: C_24  and  O_25
REMARK    7  A    between atoms: O_25  and  C_26
REMARK                            x       y       z     vdW  Elec       q    Type
REMARK                         _______ _______ _______ _____ _____    ______ ____
ROOT
ATOM      1  N   UNL A   1      -9.460 -12.210  54.792  1.00  0.00    -0.171 NA
ATOM      2  N   UNL A   1      -9.712 -11.155  55.604  1.00  0.00    -0.196 N 
ATOM      3  C   UNL A   1     -10.421 -11.206  56.841  1.00  0.00    +0.165 A 
ATOM      4  N   UNL A   1     -10.587 -10.122  57.580  1.00  0.00    -0.214 NA
ATOM      5  C   UNL A   1     -10.057  -8.971  57.052  1.00  0.00    +0.145 A 
ATOM      6  C   UNL A   1      -9.363  -8.802  55.874  1.00  0.00    +0.125 A 
ATOM      7  C   UNL A   1      -9.166 -10.012  55.099  1.00  0.00    +0.171 A 
ATOM      8  N   UNL A   1      -8.548 -10.247  53.975  1.00  0.00    -0.206 NA
ATOM      9  C   UNL A   1      -8.762 -11.606  53.807  1.00  0.00    +0.200 A 
ATOM     10  C   UNL A   1      -9.047  -7.460  55.752  1.00  0.00    +0.226 A 
ATOM     11  N   UNL A   1      -9.500  -6.767  56.804  1.00  0.00    -0.260 NA
ATOM     12  N   UNL A   1     -10.116  -7.702  57.581  1.00  0.00    -0.297 N 
ATOM     13  N   UNL A   1     -10.916 -12.422  57.251  1.00  0.00    -0.362 N 
ATOM     14  H   UNL A   1     -10.510 -13.243  56.806  1.00  0.00    +0.193 HD
ATOM     15  H   UNL A   1     -11.096 -12.504  58.243  1.00  0.00    +0.193 HD
ENDROOT
BRANCH   9  16
ATOM     16  C   UNL A   1      -8.246 -12.304  52.587  1.00  0.00    +0.133 A 
ATOM     17  O   UNL A   1      -8.742 -12.197  51.316  1.00  0.00    -0.525 OA
ATOM     18  C   UNL A   1      -7.956 -12.960  50.513  1.00  0.00    +0.208 A 
ATOM     19  C   UNL A   1      -6.970 -13.580  51.245  1.00  0.00    +0.091 A 
ATOM     20  C   UNL A   1      -7.158 -13.158  52.581  1.00  0.00    +0.124 A 
ENDBRANCH   9  16
BRANCH  12  21
ATOM     21  C   UNL A   1     -10.745  -7.283  58.820  1.00  0.00    +0.201 C 
BRANCH  21  22
ATOM     22  C   UNL A   1     -10.099  -7.943  60.034  1.00  0.00    +0.060 C 
BRANCH  22  23
ATOM     23  C   UNL A   1     -11.128  -8.271  61.116  1.00  0.00    +0.063 C 
BRANCH  23  24
ATOM     24  C   UNL A   1     -11.171  -7.192  62.172  1.00  0.00    -0.076 A 
ATOM     25  C   UNL A   1     -12.392  -6.638  62.570  1.00  0.00    +0.025 A 
ATOM     26  C   UNL A   1     -12.435  -5.606  63.517  1.00  0.00    +0.080 A 
ATOM     27  C   UNL A   1     -11.256  -5.114  64.073  1.00  0.00    +0.033 A 
ATOM     28  C   UNL A   1     -10.035  -5.665  63.676  1.00  0.00    +0.080 A 
ATOM     29  C   UNL A   1      -9.990  -6.694  62.732  1.00  0.00    +0.025 A 
BRANCH  27  30
ATOM     30  O   UNL A   1     -11.160  -4.109  64.996  1.00  0.00    -0.584 OA
ATOM     31  C   UNL A   1      -9.870  -3.542  65.195  1.00  0.00    +0.350 C 
ENDBRANCH  27  30
ENDBRANCH  23  24
ENDBRANCH  22  23
ENDBRANCH  21  22
ENDBRANCH  12  21
TORSDOF 6
ENDMDL
