REMARK  Name = SCH442416
REMARK  7 active torsions:
REMARK  status: ('A' for Active; 'I' for Inactive)
REMARK    1  A    between atoms: C_9  and  C_10
REMARK    2  A    between atoms: N_17  and  C_18
REMARK    3  A    between atoms: C_18  and  C_19
REMARK    4  A    between atoms: C_19  and  C_20
REMARK    5  A    between atoms: C_20  and  C_21
REMARK    6  A    between atoms: C_24  and  O_25
REMARK    7  A    between atoms: O_25  and  C_26
REMARK                            x       y       z     vdW  Elec       q    Type
REMARK                         _______ _______ _______ _____ _____    ______ ____
ROOT
ATOM      1  N   UNL A   1      -5.300  -7.742  54.545  1.00  0.00    -0.171 NA
ATOM      2  N   UNL A   1      -6.644  -7.568  54.535  1.00  0.00    -0.196 N 
ATOM      3  C   UNL A   1      -7.322  -6.315  54.602  1.00  0.00    +0.165 A 
ATOM      4  N   UNL A   1      -8.642  -6.248  54.552  1.00  0.00    -0.214 NA
ATOM      5  C   UNL A   1      -9.284  -7.458  54.463  1.00  0.00    +0.145 A 
ATOM      6  C   UNL A   1      -8.737  -8.721  54.397  1.00  0.00    +0.125 A 
ATOM      7  C   UNL A   1      -7.288  -8.765  54.420  1.00  0.00    +0.171 A 
ATOM      8  N   UNL A   1      -6.435  -9.748  54.348  1.00  0.00    -0.206 NA
ATOM      9  C   UNL A   1      -5.221  -9.086  54.444  1.00  0.00    +0.200 A 
ATOM     10  C   UNL A   1      -9.776  -9.634  54.339  1.00  0.00    +0.226 A 
ATOM     11  N   UNL A   1     -10.960  -9.009  54.355  1.00  0.00    -0.260 NA
ATOM     12  N   UNL A   1     -10.640  -7.687  54.435  1.00  0.00    -0.297 N 
ATOM     13  N   UNL A   1      -6.561  -5.174  54.705  1.00  0.00    -0.362 N 
ATOM     14  H   UNL A   1      -5.581  -5.265  54.443  1.00  0.00    +0.193 HD
ATOM     15  H   UNL A   1      -7.017  -4.321  54.410  1.00  0.00    +0.193 HD
ENDROOT
BRANCH   9  16
ATOM     16  C   UNL A   1      -3.940  -9.860  54.447  1.00  0.00    +0.133 A 
ATOM     17  O   UNL A   1      -2.683  -9.354  54.637  1.00  0.00    -0.525 OA
ATOM     18  C   UNL A   1      -1.819 -10.402  54.605  1.00  0.00    +0.208 A 
ATOM     19  C   UNL A   1      -2.492 -11.579  54.374  1.00  0.00    +0.091 A 
ATOM     20  C   UNL A   1      -3.858 -11.230  54.271  1.00  0.00    +0.124 A 
ENDBRANCH   9  16
BRANCH  12  21
ATOM     21  C   UNL A   1     -11.709  -6.707  54.489  1.00  0.00    +0.201 C 
BRANCH  21  22
ATOM     22  C   UNL A   1     -12.145  -6.425  55.923  1.00  0.00    +0.060 C 
BRANCH  22  23
ATOM     23  C   UNL A   1     -13.334  -5.464  55.976  1.00  0.00    +0.063 C 
BRANCH  23  24
ATOM     24  C   UNL A   1     -13.740  -5.179  57.402  1.00  0.00    -0.076 A 
ATOM     25  C   UNL A   1     -13.148  -4.128  58.112  1.00  0.00    +0.025 A 
ATOM     26  C   UNL A   1     -13.488  -3.886  59.449  1.00  0.00    +0.080 A 
ATOM     27  C   UNL A   1     -14.422  -4.695  60.093  1.00  0.00    +0.033 A 
ATOM     28  C   UNL A   1     -15.014  -5.745  59.388  1.00  0.00    +0.080 A 
ATOM     29  C   UNL A   1     -14.676  -5.989  58.054  1.00  0.00    +0.025 A 
BRANCH  27  30
ATOM     30  O   UNL A   1     -14.834  -4.571  61.392  1.00  0.00    -0.584 OA
ATOM     31  C   UNL A   1     -14.253  -3.517  62.151  1.00  0.00    +0.350 C 
ENDBRANCH  27  30
ENDBRANCH  23  24
ENDBRANCH  22  23
ENDBRANCH  21  22
ENDBRANCH  12  21
TORSDOF 6
