MODEL 1
REMARK VINA RESULT:    -5.781      0.000      0.000
REMARK INTER + INTRA:          -5.781
REMARK INTER:                  -5.781
REMARK INTRA:                   0.000
REMARK UNBOUND:                 0.000
REMARK  Name = Theophylline
REMARK  2 active torsions:
REMARK  status: ('A' for Active; 'I' for Inactive)
REMARK    1  A    between atoms: C_1  and  N_2
REMARK    2  A    between atoms: N_7  and  C_10
REMARK                            x       y       z     vdW  Elec       q    Type
REMARK                         _______ _______ _______ _____ _____    ______ ____
ROOT
ATOM      1  C   UNL A   1      -8.507  -9.914  53.969  1.00  0.00    +0.230 C 
ATOM      2  N   UNL A   1      -8.266 -10.863  52.902  1.00  0.00    -0.240 N 
ATOM      3  C   UNL A   1      -8.662 -10.613  51.612  1.00  0.00    +0.129 A 
ATOM      4  C   UNL A   1      -8.435 -11.509  50.614  1.00  0.00    +0.152 A 
ATOM      5  C   UNL A   1      -7.791 -12.758  50.806  1.00  0.00    +0.244 A 
ATOM      6  O   UNL A   1      -7.596 -13.543  49.885  1.00  0.00    -0.348 OA
ATOM      7  N   UNL A   1      -7.423 -12.973  52.137  1.00  0.00    -0.208 N 
ATOM      8  C   UNL A   1      -7.629 -12.069  53.201  1.00  0.00    +0.252 A 
ATOM      9  O   UNL A   1      -7.262 -12.336  54.349  1.00  0.00    -0.328 OA
ATOM     10  C   UNL A   1      -6.789 -14.231  52.479  1.00  0.00    +0.243 C 
ATOM     11  N   UNL A   1      -8.952 -10.941  49.487  1.00  0.00    -0.296 N 
ATOM     12  C   UNL A   1      -9.476  -9.731  49.865  1.00  0.00    +0.205 A 
ATOM     13  N   UNL A   1      -9.307  -9.505  51.153  1.00  0.00    -0.232 NA
ATOM     14  H   UNL A   1      -8.955 -11.343  48.559  1.00  0.00    +0.198 HD
ENDROOT
TORSDOF 0
ENDMDL
MODEL 2
REMARK VINA RESULT:    -5.374      1.365      3.331
REMARK INTER + INTRA:          -5.374
REMARK INTER:                  -5.374
REMARK INTRA:                   0.000
REMARK UNBOUND:                 0.000
REMARK  Name = Theophylline
REMARK  2 active torsions:
REMARK  status: ('A' for Active; 'I' for Inactive)
REMARK    1  A    between atoms: C_1  and  N_2
REMARK    2  A    between atoms: N_7  and  C_10
REMARK                            x       y       z     vdW  Elec       q    Type
REMARK                         _______ _______ _______ _____ _____    ______ ____
ROOT
ATOM      1  C   UNL A   1      -9.456 -10.606  50.608  1.00  0.00    +0.230 C 
ATOM      2  N   UNL A   1      -8.644 -11.542  51.358  1.00  0.00    -0.240 N 
ATOM      3  C   UNL A   1      -8.496 -11.440  52.718  1.00  0.00    +0.129 A 
ATOM      4  C   UNL A   1      -7.730 -12.321  53.416  1.00  0.00    +0.152 A 
ATOM      5  C   UNL A   1      -7.023 -13.397  52.821  1.00  0.00    +0.244 A 
ATOM      6  O   UNL A   1      -6.345 -14.178  53.478  1.00  0.00    -0.348 OA
ATOM      7  N   UNL A   1      -7.191 -13.448  51.434  1.00  0.00    -0.208 N 
ATOM      8  C   UNL A   1      -7.983 -12.564  50.671  1.00  0.00    +0.252 A 
ATOM      9  O   UNL A   1      -8.083 -12.687  49.448  1.00  0.00    -0.328 OA
ATOM     10  C   UNL A   1      -6.490 -14.480  50.696  1.00  0.00    +0.243 C 
ATOM     11  N   UNL A   1      -7.810 -11.923  54.718  1.00  0.00    -0.296 N 
ATOM     12  C   UNL A   1      -8.615 -10.813  54.739  1.00  0.00    +0.205 A 
ATOM     13  N   UNL A   1      -9.050 -10.501  53.535  1.00  0.00    -0.232 NA
ATOM     14  H   UNL A   1      -7.355 -12.361  55.508  1.00  0.00    +0.198 HD
ENDROOT
TORSDOF 0
ENDMDL
MODEL 3
REMARK VINA RESULT:    -5.300      3.906      5.434
REMARK INTER + INTRA:          -5.300
REMARK INTER:                  -5.300
REMARK INTRA:                   0.000
REMARK UNBOUND:                 0.000
REMARK  Name = Theophylline
REMARK  2 active torsions:
REMARK  status: ('A' for Active; 'I' for Inactive)
REMARK    1  A    between atoms: C_1  and  N_2
REMARK    2  A    between atoms: N_7  and  C_10
REMARK                            x       y       z     vdW  Elec       q    Type
REMARK                         _______ _______ _______ _____ _____    ______ ____
ROOT
ATOM      1  C   UNL A   1      -8.732  -9.908  54.425  1.00  0.00    +0.230 C 
ATOM      2  N   UNL A   1      -8.240  -8.748  53.711  1.00  0.00    -0.240 N 
ATOM      3  C   UNL A   1      -8.404  -7.476  54.200  1.00  0.00    +0.129 A 
ATOM      4  C   UNL A   1      -7.941  -6.391  53.523  1.00  0.00    +0.152 A 
ATOM      5  C   UNL A   1      -7.270  -6.466  52.276  1.00  0.00    +0.244 A 
ATOM      6  O   UNL A   1      -6.860  -5.469  51.693  1.00  0.00    -0.348 OA
ATOM      7  N   UNL A   1      -7.143  -7.778  51.812  1.00  0.00    -0.208 N 
ATOM      8  C   UNL A   1      -7.597  -8.932  52.485  1.00  0.00    +0.252 A 
ATOM      9  O   UNL A   1      -7.435 -10.058  52.006  1.00  0.00    -0.328 OA
ATOM     10  C   UNL A   1      -6.507  -7.993  50.527  1.00  0.00    +0.243 C 
ATOM     11  N   UNL A   1      -8.275  -5.313  54.289  1.00  0.00    -0.296 N 
ATOM     12  C   UNL A   1      -8.932  -5.802  55.388  1.00  0.00    +0.205 A 
ATOM     13  N   UNL A   1      -9.020  -7.117  55.360  1.00  0.00    -0.232 NA
ATOM     14  H   UNL A   1      -8.080  -4.343  54.077  1.00  0.00    +0.198 HD
ENDROOT
TORSDOF 0
ENDMDL
MODEL 4
REMARK VINA RESULT:    -5.260      1.781      4.001
REMARK INTER + INTRA:          -5.260
REMARK INTER:                  -5.260
REMARK INTRA:                   0.000
REMARK UNBOUND:                 0.000
REMARK  Name = Theophylline
REMARK  2 active torsions:
REMARK  status: ('A' for Active; 'I' for Inactive)
REMARK    1  A    between atoms: C_1  and  N_2
REMARK    2  A    between atoms: N_7  and  C_10
REMARK                            x       y       z     vdW  Elec       q    Type
REMARK                         _______ _______ _______ _____ _____    ______ ____
ROOT
ATOM      1  C   UNL A   1      -8.389 -10.763  49.645  1.00  0.00    +0.230 C 
ATOM      2  N   UNL A   1      -8.179 -11.096  51.039  1.00  0.00    -0.240 N 
ATOM      3  C   UNL A   1      -7.635 -12.296  51.421  1.00  0.00    +0.129 A 
ATOM      4  C   UNL A   1      -7.443 -12.603  52.732  1.00  0.00    +0.152 A 
ATOM      5  C   UNL A   1      -7.784 -11.739  53.803  1.00  0.00    +0.244 A 
ATOM      6  O   UNL A   1      -7.594 -12.042  54.975  1.00  0.00    -0.348 OA
ATOM      7  N   UNL A   1      -8.350 -10.538  53.365  1.00  0.00    -0.208 N 
ATOM      8  C   UNL A   1      -8.558 -10.174  52.018  1.00  0.00    +0.252 A 
ATOM      9  O   UNL A   1      -9.057  -9.086  51.718  1.00  0.00    -0.328 OA
ATOM     10  C   UNL A   1      -8.780  -9.578  54.362  1.00  0.00    +0.243 C 
ATOM     11  N   UNL A   1      -6.894 -13.852  52.738  1.00  0.00    -0.296 N 
ATOM     12  C   UNL A   1      -6.792 -14.241  51.428  1.00  0.00    +0.205 A 
ATOM     13  N   UNL A   1      -7.231 -13.309  50.605  1.00  0.00    -0.232 NA
ATOM     14  H   UNL A   1      -6.626 -14.385  53.555  1.00  0.00    +0.198 HD
ENDROOT
TORSDOF 0
ENDMDL
MODEL 5
REMARK VINA RESULT:    -5.200      2.901      4.528
REMARK INTER + INTRA:          -5.200
REMARK INTER:                  -5.200
REMARK INTRA:                   0.000
REMARK UNBOUND:                 0.000
REMARK  Name = Theophylline
REMARK  2 active torsions:
REMARK  status: ('A' for Active; 'I' for Inactive)
REMARK    1  A    between atoms: C_1  and  N_2
REMARK    2  A    between atoms: N_7  and  C_10
REMARK                            x       y       z     vdW  Elec       q    Type
REMARK                         _______ _______ _______ _____ _____    ______ ____
ROOT
ATOM      1  C   UNL A   1      -6.619  -8.428  50.627  1.00  0.00    +0.230 C 
ATOM      2  N   UNL A   1      -7.316  -8.663  51.874  1.00  0.00    -0.240 N 
ATOM      3  C   UNL A   1      -7.646  -7.635  52.721  1.00  0.00    +0.129 A 
ATOM      4  C   UNL A   1      -8.298  -7.863  53.893  1.00  0.00    +0.152 A 
ATOM      5  C   UNL A   1      -8.684  -9.151  54.343  1.00  0.00    +0.244 A 
ATOM      6  O   UNL A   1      -9.277  -9.324  55.403  1.00  0.00    -0.348 OA
ATOM      7  N   UNL A   1      -8.312 -10.165  53.456  1.00  0.00    -0.208 N 
ATOM      8  C   UNL A   1      -7.644  -9.974  52.228  1.00  0.00    +0.252 A 
ATOM      9  O   UNL A   1      -7.361 -10.928  51.498  1.00  0.00    -0.328 OA
ATOM     10  C   UNL A   1      -8.614 -11.536  53.815  1.00  0.00    +0.243 C 
ATOM     11  N   UNL A   1      -8.458  -6.636  54.467  1.00  0.00    -0.296 N 
ATOM     12  C   UNL A   1      -7.883  -5.728  53.615  1.00  0.00    +0.205 A 
ATOM     13  N   UNL A   1      -7.386  -6.310  52.542  1.00  0.00    -0.232 NA
ATOM     14  H   UNL A   1      -8.906  -6.442  55.353  1.00  0.00    +0.198 HD
ENDROOT
TORSDOF 0
ENDMDL
MODEL 6
REMARK VINA RESULT:    -5.187      3.256      3.944
REMARK INTER + INTRA:          -5.187
REMARK INTER:                  -5.187
REMARK INTRA:                   0.000
REMARK UNBOUND:                 0.000
REMARK  Name = Theophylline
REMARK  2 active torsions:
REMARK  status: ('A' for Active; 'I' for Inactive)
REMARK    1  A    between atoms: C_1  and  N_2
REMARK    2  A    between atoms: N_7  and  C_10
REMARK                            x       y       z     vdW  Elec       q    Type
REMARK                         _______ _______ _______ _____ _____    ______ ____
ROOT
ATOM      1  C   UNL A   1      -8.031  -5.761  53.957  1.00  0.00    +0.230 C 
ATOM      2  N   UNL A   1      -7.843  -7.038  53.300  1.00  0.00    -0.240 N 
ATOM      3  C   UNL A   1      -7.275  -7.132  52.055  1.00  0.00    +0.129 A 
ATOM      4  C   UNL A   1      -7.103  -8.335  51.443  1.00  0.00    +0.152 A 
ATOM      5  C   UNL A   1      -7.491  -9.573  52.014  1.00  0.00    +0.244 A 
ATOM      6  O   UNL A   1      -7.318 -10.642  51.439  1.00  0.00    -0.348 OA
ATOM      7  N   UNL A   1      -8.080  -9.424  53.272  1.00  0.00    -0.208 N 
ATOM      8  C   UNL A   1      -8.268  -8.200  53.949  1.00  0.00    +0.252 A 
ATOM      9  O   UNL A   1      -8.790  -8.159  55.066  1.00  0.00    -0.328 OA
ATOM     10  C   UNL A   1      -8.557 -10.612  53.952  1.00  0.00    +0.243 C 
ATOM     11  N   UNL A   1      -6.521  -8.054  50.242  1.00  0.00    -0.296 N 
ATOM     12  C   UNL A   1      -6.379  -6.691  50.185  1.00  0.00    +0.205 A 
ATOM     13  N   UNL A   1      -6.826  -6.107  51.279  1.00  0.00    -0.232 NA
ATOM     14  H   UNL A   1      -6.256  -8.724  49.532  1.00  0.00    +0.198 HD
ENDROOT
TORSDOF 0
ENDMDL
MODEL 7
REMARK VINA RESULT:    -5.186      3.698      5.820
REMARK INTER + INTRA:          -5.186
REMARK INTER:                  -5.186
REMARK INTRA:                   0.000
REMARK UNBOUND:                 0.000
REMARK  Name = Theophylline
REMARK  2 active torsions:
REMARK  status: ('A' for Active; 'I' for Inactive)
REMARK    1  A    between atoms: C_1  and  N_2
REMARK    2  A    between atoms: N_7  and  C_10
REMARK                            x       y       z     vdW  Elec       q    Type
REMARK                         _______ _______ _______ _____ _____    ______ ____
ROOT
ATOM      1  C   UNL A   1      -8.027  -9.790  52.878  1.00  0.00    +0.230 C 
ATOM      2  N   UNL A   1      -8.489  -9.011  54.007  1.00  0.00    -0.240 N 
ATOM      3  C   UNL A   1      -8.348  -7.647  54.049  1.00  0.00    +0.129 A 
ATOM      4  C   UNL A   1      -8.783  -6.921  55.115  1.00  0.00    +0.152 A 
ATOM      5  C   UNL A   1      -9.400  -7.490  56.258  1.00  0.00    +0.244 A 
ATOM      6  O   UNL A   1      -9.786  -6.808  57.201  1.00  0.00    -0.348 OA
ATOM      7  N   UNL A   1      -9.505  -8.881  56.176  1.00  0.00    -0.208 N 
ATOM      8  C   UNL A   1      -9.078  -9.672  55.088  1.00  0.00    +0.252 A 
ATOM      9  O   UNL A   1      -9.218 -10.898  55.094  1.00  0.00    -0.328 OA
ATOM     10  C   UNL A   1     -10.084  -9.593  57.298  1.00  0.00    +0.243 C 
ATOM     11  N   UNL A   1      -8.485  -5.623  54.819  1.00  0.00    -0.296 N 
ATOM     12  C   UNL A   1      -7.874  -5.632  53.591  1.00  0.00    +0.205 A 
ATOM     13  N   UNL A   1      -7.784  -6.852  53.098  1.00  0.00    -0.232 NA
ATOM     14  H   UNL A   1      -8.671  -4.817  55.401  1.00  0.00    +0.198 HD
ENDROOT
TORSDOF 0
ENDMDL
MODEL 8
REMARK VINA RESULT:    -5.165      3.352      4.995
REMARK INTER + INTRA:          -5.165
REMARK INTER:                  -5.165
REMARK INTRA:                   0.000
REMARK UNBOUND:                 0.000
REMARK  Name = Theophylline
REMARK  2 active torsions:
REMARK  status: ('A' for Active; 'I' for Inactive)
REMARK    1  A    between atoms: C_1  and  N_2
REMARK    2  A    between atoms: N_7  and  C_10
REMARK                            x       y       z     vdW  Elec       q    Type
REMARK                         _______ _______ _______ _____ _____    ______ ____
ROOT
ATOM      1  C   UNL A   1      -7.728 -10.851  52.358  1.00  0.00    +0.230 C 
ATOM      2  N   UNL A   1      -7.860  -9.476  52.791  1.00  0.00    -0.240 N 
ATOM      3  C   UNL A   1      -7.359  -8.435  52.050  1.00  0.00    +0.129 A 
ATOM      4  C   UNL A   1      -7.485  -7.145  52.465  1.00  0.00    +0.152 A 
ATOM      5  C   UNL A   1      -8.122  -6.762  53.672  1.00  0.00    +0.244 A 
ATOM      6  O   UNL A   1      -8.223  -5.590  54.016  1.00  0.00    -0.348 OA
ATOM      7  N   UNL A   1      -8.599  -7.857  54.398  1.00  0.00    -0.208 N 
ATOM      8  C   UNL A   1      -8.500  -9.208  54.003  1.00  0.00    +0.252 A 
ATOM      9  O   UNL A   1      -8.959 -10.115  54.703  1.00  0.00    -0.328 OA
ATOM     10  C   UNL A   1      -9.239  -7.608  55.675  1.00  0.00    +0.243 C 
ATOM     11  N   UNL A   1      -6.882  -6.391  51.500  1.00  0.00    -0.296 N 
ATOM     12  C   UNL A   1      -6.413  -7.267  50.556  1.00  0.00    +0.205 A 
ATOM     13  N   UNL A   1      -6.695  -8.517  50.864  1.00  0.00    -0.232 NA
ATOM     14  H   UNL A   1      -6.793  -5.384  51.495  1.00  0.00    +0.198 HD
ENDROOT
TORSDOF 0
ENDMDL
MODEL 9
REMARK VINA RESULT:    -5.139      3.421      4.938
REMARK INTER + INTRA:          -5.139
REMARK INTER:                  -5.139
REMARK INTRA:                   0.000
REMARK UNBOUND:                 0.000
REMARK  Name = Theophylline
REMARK  2 active torsions:
REMARK  status: ('A' for Active; 'I' for Inactive)
REMARK    1  A    between atoms: C_1  and  N_2
REMARK    2  A    between atoms: N_7  and  C_10
REMARK                            x       y       z     vdW  Elec       q    Type
REMARK                         _______ _______ _______ _____ _____    ______ ____
ROOT
ATOM      1  C   UNL A   1      -8.658  -5.757  54.757  1.00  0.00    +0.230 C 
ATOM      2  N   UNL A   1      -8.298  -6.937  53.999  1.00  0.00    -0.240 N 
ATOM      3  C   UNL A   1      -8.611  -8.199  54.438  1.00  0.00    +0.129 A 
ATOM      4  C   UNL A   1      -8.268  -9.304  53.722  1.00  0.00    +0.152 A 
ATOM      5  C   UNL A   1      -7.567  -9.260  52.490  1.00  0.00    +0.244 A 
ATOM      6  O   UNL A   1      -7.276 -10.274  51.865  1.00  0.00    -0.348 OA
ATOM      7  N   UNL A   1      -7.256  -7.956  52.095  1.00  0.00    -0.208 N 
ATOM      8  C   UNL A   1      -7.600  -6.782  52.799  1.00  0.00    +0.252 A 
ATOM      9  O   UNL A   1      -7.294  -5.666  52.372  1.00  0.00    -0.328 OA
ATOM     10  C   UNL A   1      -6.505  -7.770  50.869  1.00  0.00    +0.243 C 
ATOM     11  N   UNL A   1      -8.729 -10.365  54.444  1.00  0.00    -0.296 N 
ATOM     12  C   UNL A   1      -9.319  -9.846  55.568  1.00  0.00    +0.205 A 
ATOM     13  N   UNL A   1      -9.266  -8.529  55.585  1.00  0.00    -0.232 NA
ATOM     14  H   UNL A   1      -8.641 -11.342  54.198  1.00  0.00    +0.198 HD
ENDROOT
TORSDOF 0
ENDMDL
MODEL 10
REMARK VINA RESULT:    -5.138      2.728      3.680
REMARK INTER + INTRA:          -5.138
REMARK INTER:                  -5.138
REMARK INTRA:                   0.000
REMARK UNBOUND:                 0.000
REMARK  Name = Theophylline
REMARK  2 active torsions:
REMARK  status: ('A' for Active; 'I' for Inactive)
REMARK    1  A    between atoms: C_1  and  N_2
REMARK    2  A    between atoms: N_7  and  C_10
REMARK                            x       y       z     vdW  Elec       q    Type
REMARK                         _______ _______ _______ _____ _____    ______ ____
ROOT
ATOM      1  C   UNL A   1      -9.795  -8.996  56.603  1.00  0.00    +0.230 C 
ATOM      2  N   UNL A   1      -9.134  -9.293  55.348  1.00  0.00    -0.240 N 
ATOM      3  C   UNL A   1      -8.684  -8.298  54.517  1.00  0.00    +0.129 A 
ATOM      4  C   UNL A   1      -8.067  -8.584  53.339  1.00  0.00    +0.152 A 
ATOM      5  C   UNL A   1      -7.842  -9.901  52.865  1.00  0.00    +0.244 A 
ATOM      6  O   UNL A   1      -7.278 -10.127  51.800  1.00  0.00    -0.348 OA
ATOM      7  N   UNL A   1      -8.333 -10.877  53.737  1.00  0.00    -0.208 N 
ATOM      8  C   UNL A   1      -8.969 -10.628  54.972  1.00  0.00    +0.252 A 
ATOM      9  O   UNL A   1      -9.364 -11.552  55.687  1.00  0.00    -0.328 OA
ATOM     10  C   UNL A   1      -8.201 -12.269  53.354  1.00  0.00    +0.243 C 
ATOM     11  N   UNL A   1      -7.761  -7.376  52.784  1.00  0.00    -0.296 N 
ATOM     12  C   UNL A   1      -8.219  -6.419  53.653  1.00  0.00    +0.205 A 
ATOM     13  N   UNL A   1      -8.781  -6.955  54.719  1.00  0.00    -0.232 NA
ATOM     14  H   UNL A   1      -7.295  -7.223  51.899  1.00  0.00    +0.198 HD
ENDROOT
TORSDOF 0
ENDMDL
MODEL 11
REMARK VINA RESULT:    -5.126      2.613      4.243
REMARK INTER + INTRA:          -5.126
REMARK INTER:                  -5.126
REMARK INTRA:                   0.000
REMARK UNBOUND:                 0.000
REMARK  Name = Theophylline
REMARK  2 active torsions:
REMARK  status: ('A' for Active; 'I' for Inactive)
REMARK    1  A    between atoms: C_1  and  N_2
REMARK    2  A    between atoms: N_7  and  C_10
REMARK                            x       y       z     vdW  Elec       q    Type
REMARK                         _______ _______ _______ _____ _____    ______ ____
ROOT
ATOM      1  C   UNL A   1      -7.333  -8.543  51.732  1.00  0.00    +0.230 C 
ATOM      2  N   UNL A   1      -7.907  -9.349  52.790  1.00  0.00    -0.240 N 
ATOM      3  C   UNL A   1      -8.013 -10.713  52.681  1.00  0.00    +0.129 A 
ATOM      4  C   UNL A   1      -8.556 -11.464  53.678  1.00  0.00    +0.152 A 
ATOM      5  C   UNL A   1      -9.058 -10.924  54.888  1.00  0.00    +0.244 A 
ATOM      6  O   UNL A   1      -9.537 -11.628  55.770  1.00  0.00    -0.348 OA
ATOM      7  N   UNL A   1      -8.945  -9.532  54.944  1.00  0.00    -0.208 N 
ATOM      8  C   UNL A   1      -8.380  -8.715  53.941  1.00  0.00    +0.252 A 
ATOM      9  O   UNL A   1      -8.311  -7.490  54.076  1.00  0.00    -0.328 OA
ATOM     10  C   UNL A   1      -9.456  -8.848  56.115  1.00  0.00    +0.243 C 
ATOM     11  N   UNL A   1      -8.499 -12.753  53.235  1.00  0.00    -0.296 N 
ATOM     12  C   UNL A   1      -7.934 -12.714  51.987  1.00  0.00    +0.205 A 
ATOM     13  N   UNL A   1      -7.623 -11.484  51.628  1.00  0.00    -0.232 NA
ATOM     14  H   UNL A   1      -8.823 -13.572  53.732  1.00  0.00    +0.198 HD
ENDROOT
TORSDOF 0
ENDMDL
MODEL 12
REMARK VINA RESULT:    -5.101      3.679      5.405
REMARK INTER + INTRA:          -5.101
REMARK INTER:                  -5.101
REMARK INTRA:                   0.000
REMARK UNBOUND:                 0.000
REMARK  Name = Theophylline
REMARK  2 active torsions:
REMARK  status: ('A' for Active; 'I' for Inactive)
REMARK    1  A    between atoms: C_1  and  N_2
REMARK    2  A    between atoms: N_7  and  C_10
REMARK                            x       y       z     vdW  Elec       q    Type
REMARK                         _______ _______ _______ _____ _____    ______ ____
ROOT
ATOM      1  C   UNL A   1      -9.852  -7.480  56.898  1.00  0.00    +0.230 C 
ATOM      2  N   UNL A   1      -9.200  -7.775  55.639  1.00  0.00    -0.240 N 
ATOM      3  C   UNL A   1      -9.048  -9.062  55.188  1.00  0.00    +0.129 A 
ATOM      4  C   UNL A   1      -8.432  -9.332  54.006  1.00  0.00    +0.152 A 
ATOM      5  C   UNL A   1      -7.895  -8.336  53.151  1.00  0.00    +0.244 A 
ATOM      6  O   UNL A   1      -7.350  -8.611  52.087  1.00  0.00    -0.348 OA
ATOM      7  N   UNL A   1      -8.059  -7.045  53.660  1.00  0.00    -0.208 N 
ATOM      8  C   UNL A   1      -8.699  -6.718  54.874  1.00  0.00    +0.252 A 
ATOM      9  O   UNL A   1      -8.809  -5.547  55.245  1.00  0.00    -0.328 OA
ATOM     10  C   UNL A   1      -7.520  -5.935  52.900  1.00  0.00    +0.243 C 
ATOM     11  N   UNL A   1      -8.459 -10.690  53.881  1.00  0.00    -0.296 N 
ATOM     12  C   UNL A   1      -9.082 -11.173  55.003  1.00  0.00    +0.205 A 
ATOM     13  N   UNL A   1      -9.455 -10.202  55.812  1.00  0.00    -0.232 NA
ATOM     14  H   UNL A   1      -8.082 -11.230  53.113  1.00  0.00    +0.198 HD
ENDROOT
TORSDOF 0
ENDMDL
MODEL 13
REMARK VINA RESULT:    -5.081      3.453      5.510
REMARK INTER + INTRA:          -5.081
REMARK INTER:                  -5.081
REMARK INTRA:                   0.000
REMARK UNBOUND:                 0.000
REMARK  Name = Theophylline
REMARK  2 active torsions:
REMARK  status: ('A' for Active; 'I' for Inactive)
REMARK    1  A    between atoms: C_1  and  N_2
REMARK    2  A    between atoms: N_7  and  C_10
REMARK                            x       y       z     vdW  Elec       q    Type
REMARK                         _______ _______ _______ _____ _____    ______ ____
ROOT
ATOM      1  C   UNL A   1      -6.836  -7.608  51.335  1.00  0.00    +0.230 C 
ATOM      2  N   UNL A   1      -7.565  -7.843  52.564  1.00  0.00    -0.240 N 
ATOM      3  C   UNL A   1      -7.932  -9.106  52.955  1.00  0.00    +0.129 A 
ATOM      4  C   UNL A   1      -8.619  -9.319  54.110  1.00  0.00    +0.152 A 
ATOM      5  C   UNL A   1      -9.018  -8.284  54.993  1.00  0.00    +0.244 A 
ATOM      6  O   UNL A   1      -9.632  -8.509  56.030  1.00  0.00    -0.348 OA
ATOM      7  N   UNL A   1      -8.637  -7.017  54.544  1.00  0.00    -0.208 N 
ATOM      8  C   UNL A   1      -7.916  -6.750  53.361  1.00  0.00    +0.252 A 
ATOM      9  O   UNL A   1      -7.611  -5.598  53.042  1.00  0.00    -0.328 OA
ATOM     10  C   UNL A   1      -9.017  -5.865  55.337  1.00  0.00    +0.243 C 
ATOM     11  N   UNL A   1      -8.810 -10.668  54.177  1.00  0.00    -0.296 N 
ATOM     12  C   UNL A   1      -8.237 -11.201  53.052  1.00  0.00    +0.205 A 
ATOM     13  N   UNL A   1      -7.690 -10.272  52.294  1.00  0.00    -0.232 NA
ATOM     14  H   UNL A   1      -9.291 -11.170  54.913  1.00  0.00    +0.198 HD
ENDROOT
TORSDOF 0
ENDMDL
MODEL 14
REMARK VINA RESULT:    -5.025      2.555      3.915
REMARK INTER + INTRA:          -5.025
REMARK INTER:                  -5.025
REMARK INTRA:                   0.000
REMARK UNBOUND:                 0.000
REMARK  Name = Theophylline
REMARK  2 active torsions:
REMARK  status: ('A' for Active; 'I' for Inactive)
REMARK    1  A    between atoms: C_1  and  N_2
REMARK    2  A    between atoms: N_7  and  C_10
REMARK                            x       y       z     vdW  Elec       q    Type
REMARK                         _______ _______ _______ _____ _____    ______ ____
ROOT
ATOM      1  C   UNL A   1      -9.405 -11.064  55.555  1.00  0.00    +0.230 C 
ATOM      2  N   UNL A   1      -8.805 -10.440  54.394  1.00  0.00    -0.240 N 
ATOM      3  C   UNL A   1      -8.343 -11.180  53.335  1.00  0.00    +0.129 A 
ATOM      4  C   UNL A   1      -7.777 -10.587  52.249  1.00  0.00    +0.152 A 
ATOM      5  C   UNL A   1      -7.609  -9.186  52.113  1.00  0.00    +0.244 A 
ATOM      6  O   UNL A   1      -7.100  -8.681  51.118  1.00  0.00    -0.348 OA
ATOM      7  N   UNL A   1      -8.078  -8.478  53.223  1.00  0.00    -0.208 N 
ATOM      8  C   UNL A   1      -8.680  -9.048  54.364  1.00  0.00    +0.252 A 
ATOM      9  O   UNL A   1      -9.077  -8.346  55.298  1.00  0.00    -0.328 OA
ATOM     10  C   UNL A   1      -7.932  -7.035  53.229  1.00  0.00    +0.243 C 
ATOM     11  N   UNL A   1      -7.440 -11.608  51.410  1.00  0.00    -0.296 N 
ATOM     12  C   UNL A   1      -7.810 -12.769  52.038  1.00  0.00    +0.205 A 
ATOM     13  N   UNL A   1      -8.367 -12.535  53.210  1.00  0.00    -0.232 NA
ATOM     14  H   UNL A   1      -6.995 -11.519  50.506  1.00  0.00    +0.198 HD
ENDROOT
TORSDOF 0
ENDMDL
MODEL 15
REMARK VINA RESULT:    -5.022      2.707      5.066
REMARK INTER + INTRA:          -5.022
REMARK INTER:                  -5.022
REMARK INTRA:                   0.000
REMARK UNBOUND:                 0.000
REMARK  Name = Theophylline
REMARK  2 active torsions:
REMARK  status: ('A' for Active; 'I' for Inactive)
REMARK    1  A    between atoms: C_1  and  N_2
REMARK    2  A    between atoms: N_7  and  C_10
REMARK                            x       y       z     vdW  Elec       q    Type
REMARK                         _______ _______ _______ _____ _____    ______ ____
ROOT
ATOM      1  C   UNL A   1      -8.115 -12.536  53.157  1.00  0.00    +0.230 C 
ATOM      2  N   UNL A   1      -8.268 -11.152  53.556  1.00  0.00    -0.240 N 
ATOM      3  C   UNL A   1      -8.900 -10.804  54.723  1.00  0.00    +0.129 A 
ATOM      4  C   UNL A   1      -9.042  -9.502  55.091  1.00  0.00    +0.152 A 
ATOM      5  C   UNL A   1      -8.571  -8.408  54.322  1.00  0.00    +0.244 A 
ATOM      6  O   UNL A   1      -8.710  -7.245  54.683  1.00  0.00    -0.348 OA
ATOM      7  N   UNL A   1      -7.952  -8.813  53.136  1.00  0.00    -0.208 N 
ATOM      8  C   UNL A   1      -7.773 -10.149  52.719  1.00  0.00    +0.252 A 
ATOM      9  O   UNL A   1      -7.205 -10.418  51.658  1.00  0.00    -0.328 OA
ATOM     10  C   UNL A   1      -7.458  -7.789  52.236  1.00  0.00    +0.243 C 
ATOM     11  N   UNL A   1      -9.705  -9.530  56.283  1.00  0.00    -0.296 N 
ATOM     12  C   UNL A   1      -9.939 -10.850  56.570  1.00  0.00    +0.205 A 
ATOM     13  N   UNL A   1      -9.454 -11.646  55.638  1.00  0.00    -0.232 NA
ATOM     14  H   UNL A   1      -9.977  -8.728  56.837  1.00  0.00    +0.198 HD
ENDROOT
TORSDOF 0
ENDMDL
MODEL 16
REMARK VINA RESULT:    -4.994      4.766      6.799
REMARK INTER + INTRA:          -4.994
REMARK INTER:                  -4.994
REMARK INTRA:                   0.000
REMARK UNBOUND:                 0.000
REMARK  Name = Theophylline
REMARK  2 active torsions:
REMARK  status: ('A' for Active; 'I' for Inactive)
REMARK    1  A    between atoms: C_1  and  N_2
REMARK    2  A    between atoms: N_7  and  C_10
REMARK                            x       y       z     vdW  Elec       q    Type
REMARK                         _______ _______ _______ _____ _____    ______ ____
ROOT
ATOM      1  C   UNL A   1      -9.468  -7.248  57.000  1.00  0.00    +0.230 C 
ATOM      2  N   UNL A   1      -9.795  -8.658  56.984  1.00  0.00    -0.240 N 
ATOM      3  C   UNL A   1     -10.451  -9.259  58.029  1.00  0.00    +0.129 A 
ATOM      4  C   UNL A   1     -10.753 -10.585  58.008  1.00  0.00    +0.152 A 
ATOM      5  C   UNL A   1     -10.421 -11.453  56.938  1.00  0.00    +0.244 A 
ATOM      6  O   UNL A   1     -10.712 -12.644  56.947  1.00  0.00    -0.348 OA
ATOM      7  N   UNL A   1      -9.739 -10.800  55.908  1.00  0.00    -0.208 N 
ATOM      8  C   UNL A   1      -9.414  -9.427  55.882  1.00  0.00    +0.252 A 
ATOM      9  O   UNL A   1      -8.817  -8.929  54.924  1.00  0.00    -0.328 OA
ATOM     10  C   UNL A   1      -9.306 -11.583  54.767  1.00  0.00    +0.243 C 
ATOM     11  N   UNL A   1     -11.393 -10.832  59.188  1.00  0.00    -0.296 N 
ATOM     12  C   UNL A   1     -11.436  -9.642  59.866  1.00  0.00    +0.205 A 
ATOM     13  N   UNL A   1     -10.874  -8.666  59.180  1.00  0.00    -0.232 NA
ATOM     14  H   UNL A   1     -11.754 -11.724  59.498  1.00  0.00    +0.198 HD
ENDROOT
TORSDOF 0
ENDMDL
MODEL 17
REMARK VINA RESULT:    -4.973      2.615      3.533
REMARK INTER + INTRA:          -4.973
REMARK INTER:                  -4.973
REMARK INTRA:                   0.000
REMARK UNBOUND:                 0.000
REMARK  Name = Theophylline
REMARK  2 active torsions:
REMARK  status: ('A' for Active; 'I' for Inactive)
REMARK    1  A    between atoms: C_1  and  N_2
REMARK    2  A    between atoms: N_7  and  C_10
REMARK                            x       y       z     vdW  Elec       q    Type
REMARK                         _______ _______ _______ _____ _____    ______ ____
ROOT
ATOM      1  C   UNL A   1      -8.677  -6.783  54.488  1.00  0.00    +0.230 C 
ATOM      2  N   UNL A   1      -8.554  -8.203  54.229  1.00  0.00    -0.240 N 
ATOM      3  C   UNL A   1      -7.980  -8.679  53.077  1.00  0.00    +0.129 A 
ATOM      4  C   UNL A   1      -7.870 -10.013  52.838  1.00  0.00    +0.152 A 
ATOM      5  C   UNL A   1      -8.332 -11.015  53.729  1.00  0.00    +0.244 A 
ATOM      6  O   UNL A   1      -8.214 -12.211  53.488  1.00  0.00    -0.348 OA
ATOM      7  N   UNL A   1      -8.924 -10.481  54.877  1.00  0.00    -0.208 N 
ATOM      8  C   UNL A   1      -9.050  -9.107  55.171  1.00  0.00    +0.252 A 
ATOM      9  O   UNL A   1      -9.579  -8.721  56.217  1.00  0.00    -0.328 OA
ATOM     10  C   UNL A   1      -9.474 -11.399  55.856  1.00  0.00    +0.243 C 
ATOM     11  N   UNL A   1      -7.261 -10.118  51.622  1.00  0.00    -0.296 N 
ATOM     12  C   UNL A   1      -7.043  -8.838  51.182  1.00  0.00    +0.205 A 
ATOM     13  N   UNL A   1      -7.467  -7.943  52.052  1.00  0.00    -0.232 NA
ATOM     14  H   UNL A   1      -7.028 -10.976  51.140  1.00  0.00    +0.198 HD
ENDROOT
TORSDOF 0
ENDMDL
MODEL 18
REMARK VINA RESULT:    -4.941      2.004      3.571
REMARK INTER + INTRA:          -4.941
REMARK INTER:                  -4.941
REMARK INTRA:                   0.000
REMARK UNBOUND:                 0.000
REMARK  Name = Theophylline
REMARK  2 active torsions:
REMARK  status: ('A' for Active; 'I' for Inactive)
REMARK    1  A    between atoms: C_1  and  N_2
REMARK    2  A    between atoms: N_7  and  C_10
REMARK                            x       y       z     vdW  Elec       q    Type
REMARK                         _______ _______ _______ _____ _____    ______ ____
ROOT
ATOM      1  C   UNL A   1      -8.329 -12.317  50.597  1.00  0.00    +0.230 C 
ATOM      2  N   UNL A   1      -8.340 -11.276  51.603  1.00  0.00    -0.240 N 
ATOM      3  C   UNL A   1      -7.970  -9.987  51.312  1.00  0.00    +0.129 A 
ATOM      4  C   UNL A   1      -7.981  -9.014  52.262  1.00  0.00    +0.152 A 
ATOM      5  C   UNL A   1      -8.359  -9.233  53.611  1.00  0.00    +0.244 A 
ATOM      6  O   UNL A   1      -8.363  -8.333  54.444  1.00  0.00    -0.348 OA
ATOM      7  N   UNL A   1      -8.709 -10.562  53.862  1.00  0.00    -0.208 N 
ATOM      8  C   UNL A   1      -8.723 -11.600  52.907  1.00  0.00    +0.252 A 
ATOM      9  O   UNL A   1      -9.056 -12.748  53.213  1.00  0.00    -0.328 OA
ATOM     10  C   UNL A   1      -9.080 -10.931  55.214  1.00  0.00    +0.243 C 
ATOM     11  N   UNL A   1      -7.563  -7.880  51.629  1.00  0.00    -0.296 N 
ATOM     12  C   UNL A   1      -7.310  -8.229  50.328  1.00  0.00    +0.205 A 
ATOM     13  N   UNL A   1      -7.555  -9.506  50.107  1.00  0.00    -0.232 NA
ATOM     14  H   UNL A   1      -7.453  -6.965  52.047  1.00  0.00    +0.198 HD
ENDROOT
TORSDOF 0
ENDMDL
