REMARK  Name = Theophylline
REMARK  2 active torsions:
REMARK  status: ('A' for Active; 'I' for Inactive)
REMARK    1  A    between atoms: C_1  and  N_2
REMARK    2  A    between atoms: N_7  and  C_10
REMARK                            x       y       z     vdW  Elec       q    Type
REMARK                         _______ _______ _______ _____ _____    ______ ____
ROOT
ATOM      1  C   UNL A   1      -8.678  -4.170  55.860  1.00  0.00    +0.230 C 
ATOM      2  N   UNL A   1      -8.654  -5.618  55.854  1.00  0.00    -0.240 N 
ATOM      3  C   UNL A   1      -9.809  -6.359  55.854  1.00  0.00    +0.129 A 
ATOM      4  C   UNL A   1      -9.779  -7.719  55.851  1.00  0.00    +0.152 A 
ATOM      5  C   UNL A   1      -8.584  -8.482  55.855  1.00  0.00    +0.244 A 
ATOM      6  O   UNL A   1      -8.590  -9.708  55.847  1.00  0.00    -0.348 OA
ATOM      7  N   UNL A   1      -7.437  -7.684  55.873  1.00  0.00    -0.208 N 
ATOM      8  C   UNL A   1      -7.420  -6.273  55.866  1.00  0.00    +0.252 A 
ATOM      9  O   UNL A   1      -6.358  -5.645  55.873  1.00  0.00    -0.328 OA
ATOM     10  C   UNL A   1      -6.145  -8.340  55.917  1.00  0.00    +0.243 C 
ATOM     11  N   UNL A   1     -11.085  -8.113  55.852  1.00  0.00    -0.296 N 
ATOM     12  C   UNL A   1     -11.839  -6.968  55.866  1.00  0.00    +0.205 A 
ATOM     13  N   UNL A   1     -11.086  -5.886  55.862  1.00  0.00    -0.232 NA
ATOM     14  H   UNL A   1     -11.424  -9.066  55.852  1.00  0.00    +0.198 HD
ENDROOT
TORSDOF 0
