REMARK  Name = CPCPX
REMARK  7 active torsions:
REMARK  status: ('A' for Active; 'I' for Inactive)
REMARK    1  A    between atoms: C_1  and  C_2
REMARK    2  A    between atoms: C_2  and  C_3
REMARK    3  A    between atoms: C_3  and  N_4
REMARK    4  A    between atoms: C_9  and  C_10
REMARK    5  A    between atoms: N_17  and  C_18
REMARK    6  A    between atoms: C_18  and  C_19
REMARK    7  A    between atoms: C_19  and  C_20
REMARK                            x       y       z     vdW  Elec       q    Type
REMARK                         _______ _______ _______ _____ _____    ______ ____
ROOT
ATOM      1  N   UNL A   1     -11.468  -6.747  56.267  1.00  0.00    -0.204 N 
ATOM      2  C   UNL A   1     -10.826  -7.962  55.965  1.00  0.00    +0.252 A 
ATOM      3  O   UNL A   1     -11.422  -9.005  55.709  1.00  0.00    -0.346 OA
ATOM      4  C   UNL A   1      -9.387  -7.862  55.986  1.00  0.00    +0.174 A 
ATOM      5  N   UNL A   1      -8.461  -8.847  55.753  1.00  0.00    -0.222 NA
ATOM      6  C   UNL A   1      -7.282  -8.267  55.891  1.00  0.00    +0.036 A 
ATOM      7  N   UNL A   1      -7.434  -6.935  56.226  1.00  0.00    -0.298 N 
ATOM      8  C   UNL A   1      -8.774  -6.676  56.277  1.00  0.00    +0.110 A 
ATOM      9  N   UNL A   1      -9.425  -5.493  56.575  1.00  0.00    -0.243 N 
ATOM     10  C   UNL A   1     -10.839  -5.519  56.564  1.00  0.00    +0.253 A 
ATOM     11  O   UNL A   1     -11.494  -4.500  56.807  1.00  0.00    -0.328 OA
ATOM     12  H   UNL A   1      -6.681  -6.282  56.392  1.00  0.00    +0.203 HD
ENDROOT
BRANCH   6  13
ATOM     13  C   UNL A   1      -5.956  -8.922  55.690  1.00  0.00    +0.074 C 
ATOM     14  C   UNL A   1      -5.785  -9.455  54.265  1.00  0.00    +0.033 C 
ATOM     15  C   UNL A   1      -4.735 -10.558  54.368  1.00  0.00    +0.006 C 
ATOM     16  C   UNL A   1      -4.655 -10.942  55.844  1.00  0.00    +0.006 C 
ATOM     17  C   UNL A   1      -5.785 -10.187  56.532  1.00  0.00    +0.033 C 
ENDBRANCH   6  13
BRANCH   1  18
ATOM     18  C   UNL A   1     -12.928  -6.772  56.259  1.00  0.00    +0.184 C 
BRANCH  18  20
ATOM     19  C   UNL A   1     -15.018  -6.508  54.875  1.00  0.00    +0.016 C 
ATOM     20  C   UNL A   1     -13.497  -6.491  54.866  1.00  0.00    +0.037 C 
ENDBRANCH  18  20
ENDBRANCH   1  18
BRANCH   9  21
ATOM     21  C   UNL A   1      -8.744  -4.252  56.954  1.00  0.00    +0.172 C 
BRANCH  21  22
ATOM     22  C   UNL A   1      -8.350  -3.347  55.782  1.00  0.00    +0.035 C 
ATOM     23  C   UNL A   1      -9.525  -2.790  54.992  1.00  0.00    +0.016 C 
ENDBRANCH  21  22
ENDBRANCH   9  21
TORSDOF 5
