MODEL 1
REMARK VINA RESULT:    -7.991      0.000      0.000
REMARK INTER + INTRA:         -10.778
REMARK INTER:                 -10.327
REMARK INTRA:                  -0.451
REMARK UNBOUND:                -0.451
REMARK  Name = CPCPX
REMARK  7 active torsions:
REMARK  status: ('A' for Active; 'I' for Inactive)
REMARK    1  A    between atoms: C_1  and  C_2
REMARK    2  A    between atoms: C_2  and  C_3
REMARK    3  A    between atoms: C_3  and  N_4
REMARK    4  A    between atoms: C_9  and  C_10
REMARK    5  A    between atoms: N_17  and  C_18
REMARK    6  A    between atoms: C_18  and  C_19
REMARK    7  A    between atoms: C_19  and  C_20
REMARK                            x       y       z     vdW  Elec       q    Type
REMARK                         _______ _______ _______ _____ _____    ______ ____
ROOT
ATOM      1  N   UNL A   1      -9.909  -9.365  56.671  1.00  0.00    -0.204 N 
ATOM      2  C   UNL A   1      -9.388 -10.628  56.336  1.00  0.00    +0.252 A 
ATOM      3  O   UNL A   1      -9.422 -11.602  57.082  1.00  0.00    -0.346 OA
ATOM      4  C   UNL A   1      -8.803 -10.666  55.017  1.00  0.00    +0.174 A 
ATOM      5  N   UNL A   1      -8.200 -11.723  54.383  1.00  0.00    -0.222 NA
ATOM      6  C   UNL A   1      -7.826 -11.263  53.202  1.00  0.00    +0.036 A 
ATOM      7  N   UNL A   1      -8.161  -9.928  53.074  1.00  0.00    -0.298 N 
ATOM      8  C   UNL A   1      -8.792  -9.552  54.226  1.00  0.00    +0.110 A 
ATOM      9  N   UNL A   1      -9.307  -8.318  54.578  1.00  0.00    -0.243 N 
ATOM     10  C   UNL A   1      -9.903  -8.213  55.856  1.00  0.00    +0.253 A 
ATOM     11  O   UNL A   1     -10.398  -7.148  56.239  1.00  0.00    -0.328 OA
ATOM     12  H   UNL A   1      -7.974  -9.351  52.266  1.00  0.00    +0.203 HD
ENDROOT
BRANCH   6  13
ATOM     13  C   UNL A   1      -7.162 -12.055  52.126  1.00  0.00    +0.074 C 
ATOM     14  C   UNL A   1      -8.104 -12.340  50.953  1.00  0.00    +0.033 C 
ATOM     15  C   UNL A   1      -7.538 -13.583  50.271  1.00  0.00    +0.006 C 
ATOM     16  C   UNL A   1      -6.593 -14.235  51.278  1.00  0.00    +0.006 C 
ATOM     17  C   UNL A   1      -6.772 -13.462  52.578  1.00  0.00    +0.033 C 
ENDBRANCH   6  13
BRANCH   1  18
ATOM     18  C   UNL A   1     -10.522  -9.253  57.992  1.00  0.00    +0.184 C 
BRANCH  18  20
ATOM     19  C   UNL A   1     -12.697  -8.963  59.233  1.00  0.00    +0.016 C 
ATOM     20  C   UNL A   1     -12.045  -9.398  57.929  1.00  0.00    +0.037 C 
ENDBRANCH  18  20
ENDBRANCH   1  18
BRANCH   9  21
ATOM     21  C   UNL A   1      -9.217  -7.120  53.739  1.00  0.00    +0.172 C 
BRANCH  21  22
ATOM     22  C   UNL A   1      -7.883  -6.372  53.820  1.00  0.00    +0.035 C 
ATOM     23  C   UNL A   1      -7.143  -6.254  52.495  1.00  0.00    +0.016 C 
ENDBRANCH  21  22
ENDBRANCH   9  21
TORSDOF 5
ENDMDL
MODEL 2
REMARK VINA RESULT:    -7.841      0.886      1.127
REMARK INTER + INTRA:         -10.583
REMARK INTER:                 -10.057
REMARK INTRA:                  -0.526
REMARK UNBOUND:                -0.451
REMARK  Name = CPCPX
REMARK  7 active torsions:
REMARK  status: ('A' for Active; 'I' for Inactive)
REMARK    1  A    between atoms: C_1  and  C_2
REMARK    2  A    between atoms: C_2  and  C_3
REMARK    3  A    between atoms: C_3  and  N_4
REMARK    4  A    between atoms: C_9  and  C_10
REMARK    5  A    between atoms: N_17  and  C_18
REMARK    6  A    between atoms: C_18  and  C_19
REMARK    7  A    between atoms: C_19  and  C_20
REMARK                            x       y       z     vdW  Elec       q    Type
REMARK                         _______ _______ _______ _____ _____    ______ ____
ROOT
ATOM      1  N   UNL A   1      -9.967  -9.659  57.130  1.00  0.00    -0.204 N 
ATOM      2  C   UNL A   1      -9.383 -10.867  56.705  1.00  0.00    +0.252 A 
ATOM      3  O   UNL A   1      -9.321 -11.878  57.400  1.00  0.00    -0.346 OA
ATOM      4  C   UNL A   1      -8.861 -10.802  55.362  1.00  0.00    +0.174 A 
ATOM      5  N   UNL A   1      -8.223 -11.784  54.647  1.00  0.00    -0.222 NA
ATOM      6  C   UNL A   1      -7.936 -11.242  53.477  1.00  0.00    +0.036 A 
ATOM      7  N   UNL A   1      -8.360  -9.927  53.434  1.00  0.00    -0.298 N 
ATOM      8  C   UNL A   1      -8.957  -9.651  54.631  1.00  0.00    +0.110 A 
ATOM      9  N   UNL A   1      -9.532  -8.473  55.070  1.00  0.00    -0.243 N 
ATOM     10  C   UNL A   1     -10.071  -8.470  56.377  1.00  0.00    +0.253 A 
ATOM     11  O   UNL A   1     -10.613  -7.460  56.838  1.00  0.00    -0.328 OA
ATOM     12  H   UNL A   1      -8.249  -9.300  52.650  1.00  0.00    +0.203 HD
ENDROOT
BRANCH   6  13
ATOM     13  C   UNL A   1      -7.276 -11.934  52.331  1.00  0.00    +0.074 C 
ATOM     14  C   UNL A   1      -8.253 -12.219  51.187  1.00  0.00    +0.033 C 
ATOM     15  C   UNL A   1      -7.644 -13.387  50.416  1.00  0.00    +0.006 C 
ATOM     16  C   UNL A   1      -6.614 -14.028  51.344  1.00  0.00    +0.006 C 
ATOM     17  C   UNL A   1      -6.779 -13.335  52.690  1.00  0.00    +0.033 C 
ENDBRANCH   6  13
BRANCH   1  18
ATOM     18  C   UNL A   1     -10.522  -9.654  58.481  1.00  0.00    +0.184 C 
BRANCH  18  20
ATOM     19  C   UNL A   1      -9.385 -10.069  60.691  1.00  0.00    +0.016 C 
ATOM     20  C   UNL A   1      -9.520  -9.122  59.508  1.00  0.00    +0.037 C 
ENDBRANCH  18  20
ENDBRANCH   1  18
BRANCH   9  21
ATOM     21  C   UNL A   1      -9.558  -7.231  54.293  1.00  0.00    +0.172 C 
BRANCH  21  22
ATOM     22  C   UNL A   1      -8.287  -6.381  54.389  1.00  0.00    +0.035 C 
ATOM     23  C   UNL A   1      -7.574  -6.159  53.063  1.00  0.00    +0.016 C 
ENDBRANCH  21  22
ENDBRANCH   9  21
TORSDOF 5
ENDMDL
MODEL 3
REMARK VINA RESULT:    -7.820      2.589      4.973
REMARK INTER + INTRA:         -10.557
REMARK INTER:                 -10.019
REMARK INTRA:                  -0.538
REMARK UNBOUND:                -0.451
REMARK  Name = CPCPX
REMARK  7 active torsions:
REMARK  status: ('A' for Active; 'I' for Inactive)
REMARK    1  A    between atoms: C_1  and  C_2
REMARK    2  A    between atoms: C_2  and  C_3
REMARK    3  A    between atoms: C_3  and  N_4
REMARK    4  A    between atoms: C_9  and  C_10
REMARK    5  A    between atoms: N_17  and  C_18
REMARK    6  A    between atoms: C_18  and  C_19
REMARK    7  A    between atoms: C_19  and  C_20
REMARK                            x       y       z     vdW  Elec       q    Type
REMARK                         _______ _______ _______ _____ _____    ______ ____
ROOT
ATOM      1  N   UNL A   1     -10.628  -9.408  58.886  1.00  0.00    -0.204 N 
ATOM      2  C   UNL A   1     -10.451  -8.152  58.277  1.00  0.00    +0.252 A 
ATOM      3  O   UNL A   1     -10.697  -7.083  58.830  1.00  0.00    -0.346 OA
ATOM      4  C   UNL A   1      -9.949  -8.243  56.928  1.00  0.00    +0.174 A 
ATOM      5  N   UNL A   1      -9.677  -7.225  56.049  1.00  0.00    -0.222 NA
ATOM      6  C   UNL A   1      -9.244  -7.812  54.948  1.00  0.00    +0.036 A 
ATOM      7  N   UNL A   1      -9.251  -9.186  55.096  1.00  0.00    -0.298 N 
ATOM      8  C   UNL A   1      -9.691  -9.459  56.360  1.00  0.00    +0.110 A 
ATOM      9  N   UNL A   1      -9.876 -10.683  56.976  1.00  0.00    -0.243 N 
ATOM     10  C   UNL A   1     -10.360 -10.666  58.305  1.00  0.00    +0.253 A 
ATOM     11  O   UNL A   1     -10.539 -11.717  58.929  1.00  0.00    -0.328 OA
ATOM     12  H   UNL A   1      -8.972  -9.854  54.391  1.00  0.00    +0.203 HD
ENDROOT
BRANCH   6  13
ATOM     13  C   UNL A   1      -8.777  -7.117  53.712  1.00  0.00    +0.074 C 
ATOM     14  C   UNL A   1      -7.843  -7.994  52.874  1.00  0.00    +0.033 C 
ATOM     15  C   UNL A   1      -7.013  -7.022  52.040  1.00  0.00    +0.006 C 
ATOM     16  C   UNL A   1      -7.149  -5.655  52.708  1.00  0.00    +0.006 C 
ATOM     17  C   UNL A   1      -7.899  -5.901  54.011  1.00  0.00    +0.033 C 
ENDBRANCH   6  13
BRANCH   1  18
ATOM     18  C   UNL A   1     -11.130  -9.392  60.257  1.00  0.00    +0.184 C 
BRANCH  18  20
ATOM     19  C   UNL A   1     -13.160 -10.392  61.368  1.00  0.00    +0.016 C 
ATOM     20  C   UNL A   1     -12.660  -9.424  60.307  1.00  0.00    +0.037 C 
ENDBRANCH  18  20
ENDBRANCH   1  18
BRANCH   9  21
ATOM     21  C   UNL A   1      -9.660 -11.975  56.320  1.00  0.00    +0.172 C 
BRANCH  21  22
ATOM     22  C   UNL A   1     -10.809 -12.444  55.421  1.00  0.00    +0.035 C 
ATOM     23  C   UNL A   1     -10.412 -12.712  53.977  1.00  0.00    +0.016 C 
ENDBRANCH  21  22
ENDBRANCH   9  21
TORSDOF 5
ENDMDL
MODEL 4
REMARK VINA RESULT:    -7.736      2.450      4.469
REMARK INTER + INTRA:         -10.448
REMARK INTER:                  -9.900
REMARK INTRA:                  -0.548
REMARK UNBOUND:                -0.451
REMARK  Name = CPCPX
REMARK  7 active torsions:
REMARK  status: ('A' for Active; 'I' for Inactive)
REMARK    1  A    between atoms: C_1  and  C_2
REMARK    2  A    between atoms: C_2  and  C_3
REMARK    3  A    between atoms: C_3  and  N_4
REMARK    4  A    between atoms: C_9  and  C_10
REMARK    5  A    between atoms: N_17  and  C_18
REMARK    6  A    between atoms: C_18  and  C_19
REMARK    7  A    between atoms: C_19  and  C_20
REMARK                            x       y       z     vdW  Elec       q    Type
REMARK                         _______ _______ _______ _____ _____    ______ ____
ROOT
ATOM      1  N   UNL A   1     -10.053  -9.059  58.030  1.00  0.00    -0.204 N 
ATOM      2  C   UNL A   1      -9.704  -7.980  57.197  1.00  0.00    +0.252 A 
ATOM      3  O   UNL A   1      -9.747  -6.804  57.549  1.00  0.00    -0.346 OA
ATOM      4  C   UNL A   1      -9.289  -8.393  55.879  1.00  0.00    +0.174 A 
ATOM      5  N   UNL A   1      -8.898  -7.608  54.824  1.00  0.00    -0.222 NA
ATOM      6  C   UNL A   1      -8.619  -8.446  53.841  1.00  0.00    +0.036 A 
ATOM      7  N   UNL A   1      -8.842  -9.751  54.239  1.00  0.00    -0.298 N 
ATOM      8  C   UNL A   1      -9.259  -9.716  55.540  1.00  0.00    +0.110 A 
ATOM      9  N   UNL A   1      -9.610 -10.762  56.373  1.00  0.00    -0.243 N 
ATOM     10  C   UNL A   1     -10.020 -10.427  57.684  1.00  0.00    +0.253 A 
ATOM     11  O   UNL A   1     -10.336 -11.306  58.494  1.00  0.00    -0.328 OA
ATOM     12  H   UNL A   1      -8.708 -10.571  53.664  1.00  0.00    +0.203 HD
ENDROOT
BRANCH   6  13
ATOM     13  C   UNL A   1      -8.106  -8.071  52.491  1.00  0.00    +0.074 C 
ATOM     14  C   UNL A   1      -7.120  -9.105  51.940  1.00  0.00    +0.033 C 
ATOM     15  C   UNL A   1      -6.268  -8.351  50.923  1.00  0.00    +0.006 C 
ATOM     16  C   UNL A   1      -6.455  -6.865  51.219  1.00  0.00    +0.006 C 
ATOM     17  C   UNL A   1      -7.261  -6.796  52.510  1.00  0.00    +0.033 C 
ENDBRANCH   6  13
BRANCH   1  18
ATOM     18  C   UNL A   1     -10.479  -8.716  59.383  1.00  0.00    +0.184 C 
BRANCH  18  20
ATOM     19  C   UNL A   1      -9.457  -9.668  61.482  1.00  0.00    +0.016 C 
ATOM     20  C   UNL A   1      -9.299  -8.656  60.357  1.00  0.00    +0.037 C 
ENDBRANCH  18  20
ENDBRANCH   1  18
BRANCH   9  21
ATOM     21  C   UNL A   1      -9.637 -12.168  55.961  1.00  0.00    +0.172 C 
BRANCH  21  22
ATOM     22  C   UNL A   1     -10.951 -12.628  55.320  1.00  0.00    +0.035 C 
ATOM     23  C   UNL A   1     -10.897 -12.774  53.806  1.00  0.00    +0.016 C 
ENDBRANCH  21  22
ENDBRANCH   9  21
TORSDOF 5
ENDMDL
MODEL 5
REMARK VINA RESULT:    -7.705      1.734      3.795
REMARK INTER + INTRA:         -10.408
REMARK INTER:                  -9.950
REMARK INTRA:                  -0.458
REMARK UNBOUND:                -0.451
REMARK  Name = CPCPX
REMARK  7 active torsions:
REMARK  status: ('A' for Active; 'I' for Inactive)
REMARK    1  A    between atoms: C_1  and  C_2
REMARK    2  A    between atoms: C_2  and  C_3
REMARK    3  A    between atoms: C_3  and  N_4
REMARK    4  A    between atoms: C_9  and  C_10
REMARK    5  A    between atoms: N_17  and  C_18
REMARK    6  A    between atoms: C_18  and  C_19
REMARK    7  A    between atoms: C_19  and  C_20
REMARK                            x       y       z     vdW  Elec       q    Type
REMARK                         _______ _______ _______ _____ _____    ______ ____
ROOT
ATOM      1  N   UNL A   1      -9.528  -8.422  55.612  1.00  0.00    -0.204 N 
ATOM      2  C   UNL A   1      -8.836  -8.449  54.387  1.00  0.00    +0.252 A 
ATOM      3  O   UNL A   1      -8.587  -7.449  53.720  1.00  0.00    -0.346 OA
ATOM      4  C   UNL A   1      -8.444  -9.779  53.988  1.00  0.00    +0.174 A 
ATOM      5  N   UNL A   1      -7.772 -10.166  52.856  1.00  0.00    -0.222 NA
ATOM      6  C   UNL A   1      -7.653 -11.479  52.944  1.00  0.00    +0.036 A 
ATOM      7  N   UNL A   1      -8.251 -11.943  54.100  1.00  0.00    -0.298 N 
ATOM      8  C   UNL A   1      -8.746 -10.859  54.769  1.00  0.00    +0.110 A 
ATOM      9  N   UNL A   1      -9.431 -10.810  55.969  1.00  0.00    -0.243 N 
ATOM     10  C   UNL A   1      -9.839  -9.534  56.423  1.00  0.00    +0.253 A 
ATOM     11  O   UNL A   1     -10.444  -9.405  57.492  1.00  0.00    -0.328 OA
ATOM     12  H   UNL A   1      -8.299 -12.910  54.389  1.00  0.00    +0.203 HD
ENDROOT
BRANCH   6  13
ATOM     13  C   UNL A   1      -6.952 -12.361  51.966  1.00  0.00    +0.074 C 
ATOM     14  C   UNL A   1      -7.805 -12.643  50.727  1.00  0.00    +0.033 C 
ATOM     15  C   UNL A   1      -7.266 -13.950  50.152  1.00  0.00    +0.006 C 
ATOM     16  C   UNL A   1      -6.457 -14.611  51.266  1.00  0.00    +0.006 C 
ATOM     17  C   UNL A   1      -6.697 -13.767  52.511  1.00  0.00    +0.033 C 
ENDBRANCH   6  13
BRANCH   1  18
ATOM     18  C   UNL A   1      -9.952  -7.106  56.081  1.00  0.00    +0.184 C 
BRANCH  18  20
ATOM     19  C   UNL A   1      -8.209  -5.296  56.281  1.00  0.00    +0.016 C 
ATOM     20  C   UNL A   1      -8.901  -6.455  56.983  1.00  0.00    +0.037 C 
ENDBRANCH  18  20
ENDBRANCH   1  18
BRANCH   9  21
ATOM     21  C   UNL A   1      -9.805 -11.992  56.751  1.00  0.00    +0.172 C 
BRANCH  21  22
ATOM     22  C   UNL A   1      -8.827 -12.361  57.871  1.00  0.00    +0.035 C 
ATOM     23  C   UNL A   1      -9.427 -12.332  59.269  1.00  0.00    +0.016 C 
ENDBRANCH  21  22
ENDBRANCH   9  21
TORSDOF 5
ENDMDL
MODEL 6
REMARK VINA RESULT:    -7.640      2.044      5.075
REMARK INTER + INTRA:         -10.324
REMARK INTER:                  -9.918
REMARK INTRA:                  -0.406
REMARK UNBOUND:                -0.451
REMARK  Name = CPCPX
REMARK  7 active torsions:
REMARK  status: ('A' for Active; 'I' for Inactive)
REMARK    1  A    between atoms: C_1  and  C_2
REMARK    2  A    between atoms: C_2  and  C_3
REMARK    3  A    between atoms: C_3  and  N_4
REMARK    4  A    between atoms: C_9  and  C_10
REMARK    5  A    between atoms: N_17  and  C_18
REMARK    6  A    between atoms: C_18  and  C_19
REMARK    7  A    between atoms: C_19  and  C_20
REMARK                            x       y       z     vdW  Elec       q    Type
REMARK                         _______ _______ _______ _____ _____    ______ ____
ROOT
ATOM      1  N   UNL A   1      -9.544 -10.952  54.951  1.00  0.00    -0.204 N 
ATOM      2  C   UNL A   1      -9.084  -9.623  54.973  1.00  0.00    +0.252 A 
ATOM      3  O   UNL A   1      -9.256  -8.856  55.917  1.00  0.00    -0.346 OA
ATOM      4  C   UNL A   1      -8.384  -9.246  53.770  1.00  0.00    +0.174 A 
ATOM      5  N   UNL A   1      -7.822  -8.035  53.455  1.00  0.00    -0.222 NA
ATOM      6  C   UNL A   1      -7.305  -8.185  52.248  1.00  0.00    +0.036 A 
ATOM      7  N   UNL A   1      -7.541  -9.462  51.776  1.00  0.00    -0.298 N 
ATOM      8  C   UNL A   1      -8.220 -10.139  52.749  1.00  0.00    +0.110 A 
ATOM      9  N   UNL A   1      -8.684 -11.442  52.746  1.00  0.00    -0.243 N 
ATOM     10  C   UNL A   1      -9.373 -11.879  53.901  1.00  0.00    +0.253 A 
ATOM     11  O   UNL A   1      -9.808 -13.033  53.981  1.00  0.00    -0.328 OA
ATOM     12  H   UNL A   1      -7.252  -9.818  50.876  1.00  0.00    +0.203 HD
ENDROOT
BRANCH   6  13
ATOM     13  C   UNL A   1      -6.542  -7.152  51.488  1.00  0.00    +0.074 C 
ATOM     14  C   UNL A   1      -7.036  -5.734  51.786  1.00  0.00    +0.033 C 
ATOM     15  C   UNL A   1      -6.627  -4.900  50.575  1.00  0.00    +0.006 C 
ATOM     16  C   UNL A   1      -6.328  -5.889  49.450  1.00  0.00    +0.006 C 
ATOM     17  C   UNL A   1      -6.745  -7.256  49.976  1.00  0.00    +0.033 C 
ENDBRANCH   6  13
BRANCH   1  18
ATOM     18  C   UNL A   1     -10.258 -11.406  56.141  1.00  0.00    +0.184 C 
BRANCH  18  20
ATOM     19  C   UNL A   1     -10.056 -12.571  58.367  1.00  0.00    +0.016 C 
ATOM     20  C   UNL A   1      -9.301 -11.907  57.225  1.00  0.00    +0.037 C 
ENDBRANCH  18  20
ENDBRANCH   1  18
BRANCH   9  21
ATOM     21  C   UNL A   1      -8.558 -12.358  51.609  1.00  0.00    +0.172 C 
BRANCH  21  22
ATOM     22  C   UNL A   1      -7.162 -12.959  51.416  1.00  0.00    +0.035 C 
ATOM     23  C   UNL A   1      -6.546 -13.544  52.679  1.00  0.00    +0.016 C 
ENDBRANCH  21  22
ENDBRANCH   9  21
TORSDOF 5
ENDMDL
MODEL 7
REMARK VINA RESULT:    -7.537      2.251      4.383
REMARK INTER + INTRA:         -10.190
REMARK INTER:                  -9.683
REMARK INTRA:                  -0.507
REMARK UNBOUND:                -0.451
REMARK  Name = CPCPX
REMARK  7 active torsions:
REMARK  status: ('A' for Active; 'I' for Inactive)
REMARK    1  A    between atoms: C_1  and  C_2
REMARK    2  A    between atoms: C_2  and  C_3
REMARK    3  A    between atoms: C_3  and  N_4
REMARK    4  A    between atoms: C_9  and  C_10
REMARK    5  A    between atoms: N_17  and  C_18
REMARK    6  A    between atoms: C_18  and  C_19
REMARK    7  A    between atoms: C_19  and  C_20
REMARK                            x       y       z     vdW  Elec       q    Type
REMARK                         _______ _______ _______ _____ _____    ______ ____
ROOT
ATOM      1  N   UNL A   1     -10.008  -8.875  56.599  1.00  0.00    -0.204 N 
ATOM      2  C   UNL A   1      -9.447  -7.823  55.851  1.00  0.00    +0.252 A 
ATOM      3  O   UNL A   1      -9.543  -6.638  56.158  1.00  0.00    -0.346 OA
ATOM      4  C   UNL A   1      -8.741  -8.277  54.677  1.00  0.00    +0.174 A 
ATOM      5  N   UNL A   1      -8.093  -7.527  53.729  1.00  0.00    -0.222 NA
ATOM      6  C   UNL A   1      -7.610  -8.395  52.858  1.00  0.00    +0.036 A 
ATOM      7  N   UNL A   1      -7.952  -9.684  53.218  1.00  0.00    -0.298 N 
ATOM      8  C   UNL A   1      -8.664  -9.609  54.381  1.00  0.00    +0.110 A 
ATOM      9  N   UNL A   1      -9.226 -10.627  55.129  1.00  0.00    -0.243 N 
ATOM     10  C   UNL A   1      -9.927 -10.251  56.299  1.00  0.00    +0.253 A 
ATOM     11  O   UNL A   1     -10.447 -11.103  57.028  1.00  0.00    -0.328 OA
ATOM     12  H   UNL A   1      -7.706 -10.521  52.708  1.00  0.00    +0.203 HD
ENDROOT
BRANCH   6  13
ATOM     13  C   UNL A   1      -6.783  -8.064  51.660  1.00  0.00    +0.074 C 
ATOM     14  C   UNL A   1      -6.786  -6.564  51.353  1.00  0.00    +0.033 C 
ATOM     15  C   UNL A   1      -6.447  -6.453  49.869  1.00  0.00    +0.006 C 
ATOM     16  C   UNL A   1      -6.694  -7.834  49.265  1.00  0.00    +0.006 C 
ATOM     17  C   UNL A   1      -7.343  -8.660  50.368  1.00  0.00    +0.033 C 
ENDBRANCH   6  13
BRANCH   1  18
ATOM     18  C   UNL A   1     -10.734  -8.489  57.805  1.00  0.00    +0.184 C 
BRANCH  18  20
ATOM     19  C   UNL A   1      -9.823  -9.403  59.971  1.00  0.00    +0.016 C 
ATOM     20  C   UNL A   1      -9.791  -8.244  58.986  1.00  0.00    +0.037 C 
ENDBRANCH  18  20
ENDBRANCH   1  18
BRANCH   9  21
ATOM     21  C   UNL A   1      -9.190 -12.043  54.751  1.00  0.00    +0.172 C 
BRANCH  21  22
ATOM     22  C   UNL A   1     -10.208 -12.453  53.682  1.00  0.00    +0.035 C 
ATOM     23  C   UNL A   1     -11.487 -13.067  54.230  1.00  0.00    +0.016 C 
ENDBRANCH  21  22
ENDBRANCH   9  21
TORSDOF 5
ENDMDL
MODEL 8
REMARK VINA RESULT:    -7.336      2.395      6.989
REMARK INTER + INTRA:          -9.931
REMARK INTER:                  -9.561
REMARK INTRA:                  -0.370
REMARK UNBOUND:                -0.451
REMARK  Name = CPCPX
REMARK  7 active torsions:
REMARK  status: ('A' for Active; 'I' for Inactive)
REMARK    1  A    between atoms: C_1  and  C_2
REMARK    2  A    between atoms: C_2  and  C_3
REMARK    3  A    between atoms: C_3  and  N_4
REMARK    4  A    between atoms: C_9  and  C_10
REMARK    5  A    between atoms: N_17  and  C_18
REMARK    6  A    between atoms: C_18  and  C_19
REMARK    7  A    between atoms: C_19  and  C_20
REMARK                            x       y       z     vdW  Elec       q    Type
REMARK                         _______ _______ _______ _____ _____    ______ ____
ROOT
ATOM      1  N   UNL A   1      -7.348  -9.048  52.236  1.00  0.00    -0.204 N 
ATOM      2  C   UNL A   1      -7.760  -7.945  53.007  1.00  0.00    +0.252 A 
ATOM      3  O   UNL A   1      -7.516  -6.778  52.715  1.00  0.00    -0.346 OA
ATOM      4  C   UNL A   1      -8.503  -8.324  54.184  1.00  0.00    +0.174 A 
ATOM      5  N   UNL A   1      -9.038  -7.512  55.152  1.00  0.00    -0.222 NA
ATOM      6  C   UNL A   1      -9.617  -8.324  56.018  1.00  0.00    +0.036 A 
ATOM      7  N   UNL A   1      -9.448  -9.641  55.635  1.00  0.00    -0.298 N 
ATOM      8  C   UNL A   1      -8.748  -9.639  54.462  1.00  0.00    +0.110 A 
ATOM      9  N   UNL A   1      -8.330 -10.709  53.692  1.00  0.00    -0.243 N 
ATOM     10  C   UNL A   1      -7.602 -10.408  52.518  1.00  0.00    +0.253 A 
ATOM     11  O   UNL A   1      -7.205 -11.307  51.769  1.00  0.00    -0.328 OA
ATOM     12  H   UNL A   1      -9.794 -10.447  56.136  1.00  0.00    +0.203 HD
ENDROOT
BRANCH   6  13
ATOM     13  C   UNL A   1     -10.379  -7.909  57.232  1.00  0.00    +0.074 C 
ATOM     14  C   UNL A   1      -9.517  -7.946  58.497  1.00  0.00    +0.033 C 
ATOM     15  C   UNL A   1     -10.501  -8.094  59.654  1.00  0.00    +0.006 C 
ATOM     16  C   UNL A   1     -11.815  -8.579  59.045  1.00  0.00    +0.006 C 
ATOM     17  C   UNL A   1     -11.511  -8.876  57.583  1.00  0.00    +0.033 C 
ENDBRANCH   6  13
BRANCH   1  18
ATOM     18  C   UNL A   1      -6.594  -8.740  51.025  1.00  0.00    +0.184 C 
BRANCH  18  20
ATOM     19  C   UNL A   1      -8.126  -9.491  49.169  1.00  0.00    +0.016 C 
ATOM     20  C   UNL A   1      -7.508  -8.296  49.880  1.00  0.00    +0.037 C 
ENDBRANCH  18  20
ENDBRANCH   1  18
BRANCH   9  21
ATOM     21  C   UNL A   1      -8.543 -12.114  54.050  1.00  0.00    +0.172 C 
BRANCH  21  22
ATOM     22  C   UNL A   1      -9.884 -12.700  53.595  1.00  0.00    +0.035 C 
ATOM     23  C   UNL A   1     -10.937 -12.791  54.689  1.00  0.00    +0.016 C 
ENDBRANCH  21  22
ENDBRANCH   9  21
TORSDOF 5
ENDMDL
MODEL 9
REMARK VINA RESULT:    -7.330      1.644      2.196
REMARK INTER + INTRA:          -9.923
REMARK INTER:                  -9.871
REMARK INTRA:                  -0.052
REMARK UNBOUND:                -0.451
REMARK  Name = CPCPX
REMARK  7 active torsions:
REMARK  status: ('A' for Active; 'I' for Inactive)
REMARK    1  A    between atoms: C_1  and  C_2
REMARK    2  A    between atoms: C_2  and  C_3
REMARK    3  A    between atoms: C_3  and  N_4
REMARK    4  A    between atoms: C_9  and  C_10
REMARK    5  A    between atoms: N_17  and  C_18
REMARK    6  A    between atoms: C_18  and  C_19
REMARK    7  A    between atoms: C_19  and  C_20
REMARK                            x       y       z     vdW  Elec       q    Type
REMARK                         _______ _______ _______ _____ _____    ______ ____
ROOT
ATOM      1  N   UNL A   1     -10.157  -9.910  58.225  1.00  0.00    -0.204 N 
ATOM      2  C   UNL A   1     -10.185 -11.164  57.588  1.00  0.00    +0.252 A 
ATOM      3  O   UNL A   1     -10.526 -12.205  58.144  1.00  0.00    -0.346 OA
ATOM      4  C   UNL A   1      -9.770 -11.107  56.208  1.00  0.00    +0.174 A 
ATOM      5  N   UNL A   1      -9.668 -12.136  55.306  1.00  0.00    -0.222 NA
ATOM      6  C   UNL A   1      -9.246 -11.583  54.182  1.00  0.00    +0.036 A 
ATOM      7  N   UNL A   1      -9.058 -10.225  54.351  1.00  0.00    -0.298 N 
ATOM      8  C   UNL A   1      -9.400  -9.921  55.638  1.00  0.00    +0.110 A 
ATOM      9  N   UNL A   1      -9.377  -8.699  56.284  1.00  0.00    -0.243 N 
ATOM     10  C   UNL A   1      -9.780  -8.682  57.639  1.00  0.00    +0.253 A 
ATOM     11  O   UNL A   1      -9.799  -7.627  58.282  1.00  0.00    -0.328 OA
ATOM     12  H   UNL A   1      -8.733  -9.584  53.641  1.00  0.00    +0.203 HD
ENDROOT
BRANCH   6  13
ATOM     13  C   UNL A   1      -9.025 -12.293  52.888  1.00  0.00    +0.074 C 
ATOM     14  C   UNL A   1      -7.622 -12.901  52.795  1.00  0.00    +0.033 C 
ATOM     15  C   UNL A   1      -7.339 -13.039  51.302  1.00  0.00    +0.006 C 
ATOM     16  C   UNL A   1      -8.337 -12.132  50.586  1.00  0.00    +0.006 C 
ATOM     17  C   UNL A   1      -9.051 -11.352  51.683  1.00  0.00    +0.033 C 
ENDBRANCH   6  13
BRANCH   1  18
ATOM     18  C   UNL A   1     -10.570  -9.890  59.625  1.00  0.00    +0.184 C 
BRANCH  18  20
ATOM     19  C   UNL A   1      -8.961  -9.090  61.393  1.00  0.00    +0.016 C 
ATOM     20  C   UNL A   1      -9.426 -10.278  60.565  1.00  0.00    +0.037 C 
ENDBRANCH  18  20
ENDBRANCH   1  18
BRANCH   9  21
ATOM     21  C   UNL A   1      -8.908  -7.453  55.671  1.00  0.00    +0.172 C 
BRANCH  21  22
ATOM     22  C   UNL A   1      -9.280  -7.280  54.194  1.00  0.00    +0.035 C 
ATOM     23  C   UNL A   1      -8.103  -6.977  53.278  1.00  0.00    +0.016 C 
ENDBRANCH  21  22
ENDBRANCH   9  21
TORSDOF 5
ENDMDL
MODEL 10
REMARK VINA RESULT:    -7.266      2.246      6.449
REMARK INTER + INTRA:          -9.841
REMARK INTER:                  -9.431
REMARK INTRA:                  -0.410
REMARK UNBOUND:                -0.451
REMARK  Name = CPCPX
REMARK  7 active torsions:
REMARK  status: ('A' for Active; 'I' for Inactive)
REMARK    1  A    between atoms: C_1  and  C_2
REMARK    2  A    between atoms: C_2  and  C_3
REMARK    3  A    between atoms: C_3  and  N_4
REMARK    4  A    between atoms: C_9  and  C_10
REMARK    5  A    between atoms: N_17  and  C_18
REMARK    6  A    between atoms: C_18  and  C_19
REMARK    7  A    between atoms: C_19  and  C_20
REMARK                            x       y       z     vdW  Elec       q    Type
REMARK                         _______ _______ _______ _____ _____    ______ ____
ROOT
ATOM      1  N   UNL A   1      -8.250  -8.953  52.381  1.00  0.00    -0.204 N 
ATOM      2  C   UNL A   1      -8.620  -8.523  53.669  1.00  0.00    +0.252 A 
ATOM      3  O   UNL A   1      -8.672  -7.343  54.007  1.00  0.00    -0.346 OA
ATOM      4  C   UNL A   1      -8.934  -9.612  54.561  1.00  0.00    +0.174 A 
ATOM      5  N   UNL A   1      -9.315  -9.553  55.877  1.00  0.00    -0.222 NA
ATOM      6  C   UNL A   1      -9.484 -10.807  56.256  1.00  0.00    +0.036 A 
ATOM      7  N   UNL A   1      -9.201 -11.670  55.214  1.00  0.00    -0.298 N 
ATOM      8  C   UNL A   1      -8.860 -10.908  54.133  1.00  0.00    +0.110 A 
ATOM      9  N   UNL A   1      -8.490 -11.309  52.862  1.00  0.00    -0.243 N 
ATOM     10  C   UNL A   1      -8.176 -10.289  51.934  1.00  0.00    +0.253 A 
ATOM     11  O   UNL A   1      -7.849 -10.565  50.775  1.00  0.00    -0.328 OA
ATOM     12  H   UNL A   1      -9.249 -12.678  55.257  1.00  0.00    +0.203 HD
ENDROOT
BRANCH   6  13
ATOM     13  C   UNL A   1      -9.945 -11.260  57.601  1.00  0.00    +0.074 C 
ATOM     14  C   UNL A   1      -9.802 -10.164  58.660  1.00  0.00    +0.033 C 
ATOM     15  C   UNL A   1      -9.724 -10.899  59.996  1.00  0.00    +0.006 C 
ATOM     16  C   UNL A   1      -9.376 -12.350  59.671  1.00  0.00    +0.006 C 
ATOM     17  C   UNL A   1      -9.081 -12.383  58.177  1.00  0.00    +0.033 C 
ENDBRANCH   6  13
BRANCH   1  18
ATOM     18  C   UNL A   1      -7.922  -7.902  51.422  1.00  0.00    +0.184 C 
BRANCH  18  20
ATOM     19  C   UNL A   1      -6.067  -6.674  50.237  1.00  0.00    +0.016 C 
ATOM     20  C   UNL A   1      -6.419  -7.614  51.380  1.00  0.00    +0.037 C 
ENDBRANCH  18  20
ENDBRANCH   1  18
BRANCH   9  21
ATOM     21  C   UNL A   1      -8.349 -12.708  52.450  1.00  0.00    +0.172 C 
BRANCH  21  22
ATOM     22  C   UNL A   1      -6.925 -13.268  52.539  1.00  0.00    +0.035 C 
ATOM     23  C   UNL A   1      -6.489 -14.077  51.326  1.00  0.00    +0.016 C 
ENDBRANCH  21  22
ENDBRANCH   9  21
TORSDOF 5
ENDMDL
MODEL 11
REMARK VINA RESULT:    -7.252      2.031      6.000
REMARK INTER + INTRA:          -9.822
REMARK INTER:                  -9.258
REMARK INTRA:                  -0.563
REMARK UNBOUND:                -0.451
REMARK  Name = CPCPX
REMARK  7 active torsions:
REMARK  status: ('A' for Active; 'I' for Inactive)
REMARK    1  A    between atoms: C_1  and  C_2
REMARK    2  A    between atoms: C_2  and  C_3
REMARK    3  A    between atoms: C_3  and  N_4
REMARK    4  A    between atoms: C_9  and  C_10
REMARK    5  A    between atoms: N_17  and  C_18
REMARK    6  A    between atoms: C_18  and  C_19
REMARK    7  A    between atoms: C_19  and  C_20
REMARK                            x       y       z     vdW  Elec       q    Type
REMARK                         _______ _______ _______ _____ _____    ______ ____
ROOT
ATOM      1  N   UNL A   1      -7.912 -10.593  52.608  1.00  0.00    -0.204 N 
ATOM      2  C   UNL A   1      -8.132 -11.476  53.681  1.00  0.00    +0.252 A 
ATOM      3  O   UNL A   1      -7.841 -12.669  53.655  1.00  0.00    -0.346 OA
ATOM      4  C   UNL A   1      -8.738 -10.839  54.824  1.00  0.00    +0.174 A 
ATOM      5  N   UNL A   1      -9.097 -11.402  56.023  1.00  0.00    -0.222 NA
ATOM      6  C   UNL A   1      -9.612 -10.417  56.738  1.00  0.00    +0.036 A 
ATOM      7  N   UNL A   1      -9.607  -9.239  56.015  1.00  0.00    -0.298 N 
ATOM      8  C   UNL A   1      -9.042  -9.507  54.801  1.00  0.00    +0.110 A 
ATOM      9  N   UNL A   1      -8.821  -8.656  53.733  1.00  0.00    -0.243 N 
ATOM     10  C   UNL A   1      -8.221  -9.216  52.581  1.00  0.00    +0.253 A 
ATOM     11  O   UNL A   1      -7.978  -8.519  51.590  1.00  0.00    -0.328 OA
ATOM     12  H   UNL A   1      -9.954  -8.349  56.342  1.00  0.00    +0.203 HD
ENDROOT
BRANCH   6  13
ATOM     13  C   UNL A   1     -10.109 -10.523  58.141  1.00  0.00    +0.074 C 
ATOM     14  C   UNL A   1      -9.743  -9.294  58.978  1.00  0.00    +0.033 C 
ATOM     15  C   UNL A   1      -9.760  -9.771  60.428  1.00  0.00    +0.006 C 
ATOM     16  C   UNL A   1      -9.687 -11.295  60.382  1.00  0.00    +0.006 C 
ATOM     17  C   UNL A   1      -9.444 -11.657  58.923  1.00  0.00    +0.033 C 
ENDBRANCH   6  13
BRANCH   1  18
ATOM     18  C   UNL A   1      -7.295 -11.169  51.417  1.00  0.00    +0.184 C 
BRANCH  18  20
ATOM     19  C   UNL A   1      -7.956 -13.161  50.021  1.00  0.00    +0.016 C 
ATOM     20  C   UNL A   1      -8.337 -11.756  50.461  1.00  0.00    +0.037 C 
ENDBRANCH  18  20
ENDBRANCH   1  18
BRANCH   9  21
ATOM     21  C   UNL A   1      -9.222  -7.247  53.707  1.00  0.00    +0.172 C 
BRANCH  21  22
ATOM     22  C   UNL A   1      -8.228  -6.280  54.359  1.00  0.00    +0.035 C 
ATOM     23  C   UNL A   1      -8.657  -5.759  55.723  1.00  0.00    +0.016 C 
ENDBRANCH  21  22
ENDBRANCH   9  21
TORSDOF 5
ENDMDL
MODEL 12
REMARK VINA RESULT:    -7.095      1.869      6.273
REMARK INTER + INTRA:          -9.620
REMARK INTER:                  -9.426
REMARK INTRA:                  -0.194
REMARK UNBOUND:                -0.451
REMARK  Name = CPCPX
REMARK  7 active torsions:
REMARK  status: ('A' for Active; 'I' for Inactive)
REMARK    1  A    between atoms: C_1  and  C_2
REMARK    2  A    between atoms: C_2  and  C_3
REMARK    3  A    between atoms: C_3  and  N_4
REMARK    4  A    between atoms: C_9  and  C_10
REMARK    5  A    between atoms: N_17  and  C_18
REMARK    6  A    between atoms: C_18  and  C_19
REMARK    7  A    between atoms: C_19  and  C_20
REMARK                            x       y       z     vdW  Elec       q    Type
REMARK                         _______ _______ _______ _____ _____    ______ ____
ROOT
ATOM      1  N   UNL A   1      -8.408 -11.375  52.664  1.00  0.00    -0.204 N 
ATOM      2  C   UNL A   1      -9.119 -11.964  53.726  1.00  0.00    +0.252 A 
ATOM      3  O   UNL A   1      -9.484 -13.136  53.737  1.00  0.00    -0.346 OA
ATOM      4  C   UNL A   1      -9.379 -11.048  54.809  1.00  0.00    +0.174 A 
ATOM      5  N   UNL A   1     -10.052 -11.284  55.982  1.00  0.00    -0.222 NA
ATOM      6  C   UNL A   1     -10.028 -10.140  56.642  1.00  0.00    +0.036 A 
ATOM      7  N   UNL A   1      -9.371  -9.171  55.909  1.00  0.00    -0.298 N 
ATOM      8  C   UNL A   1      -8.950  -9.752  54.747  1.00  0.00    +0.110 A 
ATOM      9  N   UNL A   1      -8.255  -9.192  53.691  1.00  0.00    -0.243 N 
ATOM     10  C   UNL A   1      -7.959 -10.039  52.597  1.00  0.00    +0.253 A 
ATOM     11  O   UNL A   1      -7.330  -9.617  51.621  1.00  0.00    -0.328 OA
ATOM     12  H   UNL A   1      -9.228  -8.213  56.196  1.00  0.00    +0.203 HD
ENDROOT
BRANCH   6  13
ATOM     13  C   UNL A   1     -10.595  -9.903  58.002  1.00  0.00    +0.074 C 
ATOM     14  C   UNL A   1     -12.017  -9.338  57.945  1.00  0.00    +0.033 C 
ATOM     15  C   UNL A   1     -12.220  -8.616  59.275  1.00  0.00    +0.006 C 
ATOM     16  C   UNL A   1     -10.827  -8.390  59.861  1.00  0.00    +0.006 C 
ATOM     17  C   UNL A   1      -9.846  -8.819  58.777  1.00  0.00    +0.033 C 
ENDBRANCH   6  13
BRANCH   1  18
ATOM     18  C   UNL A   1      -8.103 -12.246  51.533  1.00  0.00    +0.184 C 
BRANCH  18  20
ATOM     19  C   UNL A   1      -6.691 -14.217  50.844  1.00  0.00    +0.016 C 
ATOM     20  C   UNL A   1      -6.767 -12.971  51.713  1.00  0.00    +0.037 C 
ENDBRANCH  18  20
ENDBRANCH   1  18
BRANCH   9  21
ATOM     21  C   UNL A   1      -7.868  -7.780  53.617  1.00  0.00    +0.172 C 
BRANCH  21  22
ATOM     22  C   UNL A   1      -8.989  -6.786  53.934  1.00  0.00    +0.035 C 
ATOM     23  C   UNL A   1      -8.605  -5.698  54.926  1.00  0.00    +0.016 C 
ENDBRANCH  21  22
ENDBRANCH   9  21
TORSDOF 5
ENDMDL
MODEL 13
REMARK VINA RESULT:    -6.989      2.371      4.304
REMARK INTER + INTRA:          -9.482
REMARK INTER:                  -9.039
REMARK INTRA:                  -0.443
REMARK UNBOUND:                -0.451
REMARK  Name = CPCPX
REMARK  7 active torsions:
REMARK  status: ('A' for Active; 'I' for Inactive)
REMARK    1  A    between atoms: C_1  and  C_2
REMARK    2  A    between atoms: C_2  and  C_3
REMARK    3  A    between atoms: C_3  and  N_4
REMARK    4  A    between atoms: C_9  and  C_10
REMARK    5  A    between atoms: N_17  and  C_18
REMARK    6  A    between atoms: C_18  and  C_19
REMARK    7  A    between atoms: C_19  and  C_20
REMARK                            x       y       z     vdW  Elec       q    Type
REMARK                         _______ _______ _______ _____ _____    ______ ____
ROOT
ATOM      1  N   UNL A   1     -10.367  -8.932  58.013  1.00  0.00    -0.204 N 
ATOM      2  C   UNL A   1      -9.841  -8.065  57.037  1.00  0.00    +0.252 A 
ATOM      3  O   UNL A   1      -9.808  -6.843  57.154  1.00  0.00    -0.346 OA
ATOM      4  C   UNL A   1      -9.340  -8.759  55.875  1.00  0.00    +0.174 A 
ATOM      5  N   UNL A   1      -8.778  -8.227  54.742  1.00  0.00    -0.222 NA
ATOM      6  C   UNL A   1      -8.486  -9.260  53.972  1.00  0.00    +0.036 A 
ATOM      7  N   UNL A   1      -8.866 -10.441  54.580  1.00  0.00    -0.298 N 
ATOM      8  C   UNL A   1      -9.401 -10.121  55.796  1.00  0.00    +0.110 A 
ATOM      9  N   UNL A   1      -9.926 -10.955  56.766  1.00  0.00    -0.243 N 
ATOM     10  C   UNL A   1     -10.428 -10.339  57.937  1.00  0.00    +0.253 A 
ATOM     11  O   UNL A   1     -10.901 -11.016  58.856  1.00  0.00    -0.328 OA
ATOM     12  H   UNL A   1      -8.755 -11.366  54.189  1.00  0.00    +0.203 HD
ENDROOT
BRANCH   6  13
ATOM     13  C   UNL A   1      -7.812  -9.196  52.641  1.00  0.00    +0.074 C 
ATOM     14  C   UNL A   1      -7.421  -7.766  52.260  1.00  0.00    +0.033 C 
ATOM     15  C   UNL A   1      -7.320  -7.766  50.737  1.00  0.00    +0.006 C 
ATOM     16  C   UNL A   1      -8.065  -9.009  50.254  1.00  0.00    +0.006 C 
ATOM     17  C   UNL A   1      -8.734  -9.599  51.489  1.00  0.00    +0.033 C 
ENDBRANCH   6  13
BRANCH   1  18
ATOM     18  C   UNL A   1     -10.887  -8.298  59.221  1.00  0.00    +0.184 C 
BRANCH  18  20
ATOM     19  C   UNL A   1     -10.415  -8.314  61.697  1.00  0.00    +0.016 C 
ATOM     20  C   UNL A   1      -9.815  -8.169  60.306  1.00  0.00    +0.037 C 
ENDBRANCH  18  20
ENDBRANCH   1  18
BRANCH   9  21
ATOM     21  C   UNL A   1     -10.045 -12.409  56.626  1.00  0.00    +0.172 C 
BRANCH  21  22
ATOM     22  C   UNL A   1     -11.307 -12.887  55.900  1.00  0.00    +0.035 C 
ATOM     23  C   UNL A   1     -11.168 -12.981  54.388  1.00  0.00    +0.016 C 
ENDBRANCH  21  22
ENDBRANCH   9  21
TORSDOF 5
ENDMDL
MODEL 14
REMARK VINA RESULT:    -6.874      2.087      6.667
REMARK INTER + INTRA:          -9.333
REMARK INTER:                  -8.832
REMARK INTRA:                  -0.502
REMARK UNBOUND:                -0.451
REMARK  Name = CPCPX
REMARK  7 active torsions:
REMARK  status: ('A' for Active; 'I' for Inactive)
REMARK    1  A    between atoms: C_1  and  C_2
REMARK    2  A    between atoms: C_2  and  C_3
REMARK    3  A    between atoms: C_3  and  N_4
REMARK    4  A    between atoms: C_9  and  C_10
REMARK    5  A    between atoms: N_17  and  C_18
REMARK    6  A    between atoms: C_18  and  C_19
REMARK    7  A    between atoms: C_19  and  C_20
REMARK                            x       y       z     vdW  Elec       q    Type
REMARK                         _______ _______ _______ _____ _____    ______ ____
ROOT
ATOM      1  N   UNL A   1      -8.967 -10.527  54.956  1.00  0.00    -0.204 N 
ATOM      2  C   UNL A   1      -9.303 -10.940  56.258  1.00  0.00    +0.252 A 
ATOM      3  O   UNL A   1      -9.227 -12.102  56.649  1.00  0.00    -0.346 OA
ATOM      4  C   UNL A   1      -9.751  -9.855  57.098  1.00  0.00    +0.174 A 
ATOM      5  N   UNL A   1     -10.164  -9.904  58.405  1.00  0.00    -0.222 NA
ATOM      6  C   UNL A   1     -10.474  -8.660  58.726  1.00  0.00    +0.036 A 
ATOM      7  N   UNL A   1     -10.286  -7.819  57.646  1.00  0.00    -0.298 N 
ATOM      8  C   UNL A   1      -9.817  -8.579  56.613  1.00  0.00    +0.110 A 
ATOM      9  N   UNL A   1      -9.485  -8.196  55.326  1.00  0.00    -0.243 N 
ATOM     10  C   UNL A   1      -9.030  -9.210  54.452  1.00  0.00    +0.253 A 
ATOM     11  O   UNL A   1      -8.701  -8.947  53.291  1.00  0.00    -0.328 OA
ATOM     12  H   UNL A   1     -10.461  -6.824  57.640  1.00  0.00    +0.203 HD
ENDROOT
BRANCH   6  13
ATOM     13  C   UNL A   1     -10.936  -8.193  60.067  1.00  0.00    +0.074 C 
ATOM     14  C   UNL A   1     -11.297  -6.705  60.066  1.00  0.00    +0.033 C 
ATOM     15  C   UNL A   1     -11.162  -6.255  61.519  1.00  0.00    +0.006 C 
ATOM     16  C   UNL A   1     -10.323  -7.318  62.224  1.00  0.00    +0.006 C 
ATOM     17  C   UNL A   1      -9.839  -8.260  61.129  1.00  0.00    +0.033 C 
ENDBRANCH   6  13
BRANCH   1  18
ATOM     18  C   UNL A   1      -8.500 -11.574  54.051  1.00  0.00    +0.184 C 
BRANCH  18  20
ATOM     19  C   UNL A   1      -9.492 -11.935  51.762  1.00  0.00    +0.016 C 
ATOM     20  C   UNL A   1      -9.649 -12.194  53.252  1.00  0.00    +0.037 C 
ENDBRANCH  18  20
ENDBRANCH   1  18
BRANCH   9  21
ATOM     21  C   UNL A   1      -9.633  -6.832  54.810  1.00  0.00    +0.172 C 
BRANCH  21  22
ATOM     22  C   UNL A   1      -8.376  -5.962  54.914  1.00  0.00    +0.035 C 
ATOM     23  C   UNL A   1      -7.731  -5.623  53.578  1.00  0.00    +0.016 C 
ENDBRANCH  21  22
ENDBRANCH   9  21
TORSDOF 5
ENDMDL
MODEL 15
REMARK VINA RESULT:    -6.758      2.764      7.412
REMARK INTER + INTRA:          -9.184
REMARK INTER:                  -8.687
REMARK INTRA:                  -0.497
REMARK UNBOUND:                -0.451
REMARK  Name = CPCPX
REMARK  7 active torsions:
REMARK  status: ('A' for Active; 'I' for Inactive)
REMARK    1  A    between atoms: C_1  and  C_2
REMARK    2  A    between atoms: C_2  and  C_3
REMARK    3  A    between atoms: C_3  and  N_4
REMARK    4  A    between atoms: C_9  and  C_10
REMARK    5  A    between atoms: N_17  and  C_18
REMARK    6  A    between atoms: C_18  and  C_19
REMARK    7  A    between atoms: C_19  and  C_20
REMARK                            x       y       z     vdW  Elec       q    Type
REMARK                         _______ _______ _______ _____ _____    ______ ____
ROOT
ATOM      1  N   UNL A   1      -9.062  -8.098  54.164  1.00  0.00    -0.204 N 
ATOM      2  C   UNL A   1      -9.412  -7.191  55.182  1.00  0.00    +0.252 A 
ATOM      3  O   UNL A   1      -9.466  -5.974  55.024  1.00  0.00    -0.346 OA
ATOM      4  C   UNL A   1      -9.704  -7.836  56.439  1.00  0.00    +0.174 A 
ATOM      5  N   UNL A   1     -10.062  -7.258  57.630  1.00  0.00    -0.222 NA
ATOM      6  C   UNL A   1     -10.216  -8.258  58.479  1.00  0.00    +0.036 A 
ATOM      7  N   UNL A   1      -9.946  -9.464  57.861  1.00  0.00    -0.298 N 
ATOM      8  C   UNL A   1      -9.629  -9.195  56.560  1.00  0.00    +0.110 A 
ATOM      9  N   UNL A   1      -9.279 -10.069  55.546  1.00  0.00    -0.243 N 
ATOM     10  C   UNL A   1      -8.988  -9.502  54.284  1.00  0.00    +0.253 A 
ATOM     11  O   UNL A   1      -8.680 -10.217  53.324  1.00  0.00    -0.328 OA
ATOM     12  H   UNL A   1      -9.987 -10.372  58.302  1.00  0.00    +0.203 HD
ENDROOT
BRANCH   6  13
ATOM     13  C   UNL A   1     -10.650  -8.139  59.902  1.00  0.00    +0.074 C 
ATOM     14  C   UNL A   1     -11.223  -6.755  60.217  1.00  0.00    +0.033 C 
ATOM     15  C   UNL A   1     -11.058  -6.580  61.724  1.00  0.00    +0.006 C 
ATOM     16  C   UNL A   1     -10.026  -7.616  62.168  1.00  0.00    +0.006 C 
ATOM     17  C   UNL A   1      -9.485  -8.239  60.888  1.00  0.00    +0.033 C 
ENDBRANCH   6  13
BRANCH   1  18
ATOM     18  C   UNL A   1      -8.759  -7.515  52.860  1.00  0.00    +0.184 C 
BRANCH  18  20
ATOM     19  C   UNL A   1      -6.715  -7.346  51.395  1.00  0.00    +0.016 C 
ATOM     20  C   UNL A   1      -7.303  -7.051  52.766  1.00  0.00    +0.037 C 
ENDBRANCH  18  20
ENDBRANCH   1  18
BRANCH   9  21
ATOM     21  C   UNL A   1      -9.137 -11.517  55.721  1.00  0.00    +0.172 C 
BRANCH  21  22
ATOM     22  C   UNL A   1     -10.454 -12.301  55.716  1.00  0.00    +0.035 C 
ATOM     23  C   UNL A   1     -10.873 -12.821  54.349  1.00  0.00    +0.016 C 
ENDBRANCH  21  22
ENDBRANCH   9  21
TORSDOF 5
ENDMDL
MODEL 16
REMARK VINA RESULT:    -6.705     10.907     12.709
REMARK INTER + INTRA:          -9.116
REMARK INTER:                  -8.641
REMARK INTRA:                  -0.475
REMARK UNBOUND:                -0.451
REMARK  Name = CPCPX
REMARK  7 active torsions:
REMARK  status: ('A' for Active; 'I' for Inactive)
REMARK    1  A    between atoms: C_1  and  C_2
REMARK    2  A    between atoms: C_2  and  C_3
REMARK    3  A    between atoms: C_3  and  N_4
REMARK    4  A    between atoms: C_9  and  C_10
REMARK    5  A    between atoms: N_17  and  C_18
REMARK    6  A    between atoms: C_18  and  C_19
REMARK    7  A    between atoms: C_19  and  C_20
REMARK                            x       y       z     vdW  Elec       q    Type
REMARK                         _______ _______ _______ _____ _____    ______ ____
ROOT
ATOM      1  N   UNL A   1     -21.224 -12.089  59.139  1.00  0.00    -0.204 N 
ATOM      2  C   UNL A   1     -21.667 -11.202  58.141  1.00  0.00    +0.252 A 
ATOM      3  O   UNL A   1     -22.445 -10.275  58.347  1.00  0.00    -0.346 OA
ATOM      4  C   UNL A   1     -21.113 -11.491  56.841  1.00  0.00    +0.174 A 
ATOM      5  N   UNL A   1     -21.340 -10.841  55.654  1.00  0.00    -0.222 NA
ATOM      6  C   UNL A   1     -20.612 -11.478  54.754  1.00  0.00    +0.036 A 
ATOM      7  N   UNL A   1     -19.938 -12.534  55.337  1.00  0.00    -0.298 N 
ATOM      8  C   UNL A   1     -20.250 -12.536  56.666  1.00  0.00    +0.110 A 
ATOM      9  N   UNL A   1     -19.830 -13.399  57.662  1.00  0.00    -0.243 N 
ATOM     10  C   UNL A   1     -20.330 -13.167  58.964  1.00  0.00    +0.253 A 
ATOM     11  O   UNL A   1     -19.992 -13.885  59.911  1.00  0.00    -0.328 OA
ATOM     12  H   UNL A   1     -19.323 -13.175  54.855  1.00  0.00    +0.203 HD
ENDROOT
BRANCH   6  13
ATOM     13  C   UNL A   1     -20.489 -11.114  53.312  1.00  0.00    +0.074 C 
ATOM     14  C   UNL A   1     -21.198  -9.797  52.986  1.00  0.00    +0.033 C 
ATOM     15  C   UNL A   1     -21.504  -9.861  51.492  1.00  0.00    +0.006 C 
ATOM     16  C   UNL A   1     -21.388 -11.330  51.089  1.00  0.00    +0.006 C 
ATOM     17  C   UNL A   1     -21.200 -12.103  52.388  1.00  0.00    +0.033 C 
ENDBRANCH   6  13
BRANCH   1  18
ATOM     18  C   UNL A   1     -21.740 -11.853  60.484  1.00  0.00    +0.184 C 
BRANCH  18  20
ATOM     19  C   UNL A   1     -21.523  -9.664  61.716  1.00  0.00    +0.016 C 
ATOM     20  C   UNL A   1     -20.816 -10.945  61.300  1.00  0.00    +0.037 C 
ENDBRANCH  18  20
ENDBRANCH   1  18
BRANCH   9  21
ATOM     21  C   UNL A   1     -18.960 -14.556  57.435  1.00  0.00    +0.172 C 
BRANCH  21  22
ATOM     22  C   UNL A   1     -17.471 -14.226  57.288  1.00  0.00    +0.035 C 
ATOM     23  C   UNL A   1     -16.532 -15.363  57.663  1.00  0.00    +0.016 C 
ENDBRANCH  21  22
ENDBRANCH   9  21
TORSDOF 5
ENDMDL
MODEL 17
REMARK VINA RESULT:    -6.473      2.312      6.941
REMARK INTER + INTRA:          -8.815
REMARK INTER:                  -8.609
REMARK INTRA:                  -0.206
REMARK UNBOUND:                -0.451
REMARK  Name = CPCPX
REMARK  7 active torsions:
REMARK  status: ('A' for Active; 'I' for Inactive)
REMARK    1  A    between atoms: C_1  and  C_2
REMARK    2  A    between atoms: C_2  and  C_3
REMARK    3  A    between atoms: C_3  and  N_4
REMARK    4  A    between atoms: C_9  and  C_10
REMARK    5  A    between atoms: N_17  and  C_18
REMARK    6  A    between atoms: C_18  and  C_19
REMARK    7  A    between atoms: C_19  and  C_20
REMARK                            x       y       z     vdW  Elec       q    Type
REMARK                         _______ _______ _______ _____ _____    ______ ____
ROOT
ATOM      1  N   UNL A   1      -9.240 -10.765  55.819  1.00  0.00    -0.204 N 
ATOM      2  C   UNL A   1      -9.726 -11.298  57.027  1.00  0.00    +0.252 A 
ATOM      3  O   UNL A   1      -9.627 -12.481  57.341  1.00  0.00    -0.346 OA
ATOM      4  C   UNL A   1     -10.356 -10.310  57.868  1.00  0.00    +0.174 A 
ATOM      5  N   UNL A   1     -10.942 -10.485  59.096  1.00  0.00    -0.222 NA
ATOM      6  C   UNL A   1     -11.376  -9.291  59.457  1.00  0.00    +0.036 A 
ATOM      7  N   UNL A   1     -11.097  -8.357  58.477  1.00  0.00    -0.298 N 
ATOM      8  C   UNL A   1     -10.439  -9.005  57.470  1.00  0.00    +0.110 A 
ATOM      9  N   UNL A   1      -9.958  -8.503  56.275  1.00  0.00    -0.243 N 
ATOM     10  C   UNL A   1      -9.320  -9.418  55.406  1.00  0.00    +0.253 A 
ATOM     11  O   UNL A   1      -8.852  -9.045  54.325  1.00  0.00    -0.328 OA
ATOM     12  H   UNL A   1     -11.334  -7.376  58.516  1.00  0.00    +0.203 HD
ENDROOT
BRANCH   6  13
ATOM     13  C   UNL A   1     -12.049  -8.957  60.747  1.00  0.00    +0.074 C 
ATOM     14  C   UNL A   1     -11.047  -8.579  61.840  1.00  0.00    +0.033 C 
ATOM     15  C   UNL A   1     -11.764  -8.851  63.160  1.00  0.00    +0.006 C 
ATOM     16  C   UNL A   1     -12.939  -9.769  62.831  1.00  0.00    +0.006 C 
ATOM     17  C   UNL A   1     -12.769 -10.155  61.368  1.00  0.00    +0.033 C 
ENDBRANCH   6  13
BRANCH   1  18
ATOM     18  C   UNL A   1      -8.584 -11.709  54.918  1.00  0.00    +0.184 C 
BRANCH  18  20
ATOM     19  C   UNL A   1     -10.672 -12.770  53.988  1.00  0.00    +0.016 C 
ATOM     20  C   UNL A   1      -9.417 -11.974  53.662  1.00  0.00    +0.037 C 
ENDBRANCH  18  20
ENDBRANCH   1  18
BRANCH   9  21
ATOM     21  C   UNL A   1     -10.123  -7.113  55.841  1.00  0.00    +0.172 C 
BRANCH  21  22
ATOM     22  C   UNL A   1      -8.894  -6.222  56.044  1.00  0.00    +0.035 C 
ATOM     23  C   UNL A   1      -8.314  -5.645  54.761  1.00  0.00    +0.016 C 
ENDBRANCH  21  22
ENDBRANCH   9  21
TORSDOF 5
ENDMDL
MODEL 18
REMARK VINA RESULT:    -6.360     10.884     13.396
REMARK INTER + INTRA:          -8.670
REMARK INTER:                  -8.132
REMARK INTRA:                  -0.538
REMARK UNBOUND:                -0.451
REMARK  Name = CPCPX
REMARK  7 active torsions:
REMARK  status: ('A' for Active; 'I' for Inactive)
REMARK    1  A    between atoms: C_1  and  C_2
REMARK    2  A    between atoms: C_2  and  C_3
REMARK    3  A    between atoms: C_3  and  N_4
REMARK    4  A    between atoms: C_9  and  C_10
REMARK    5  A    between atoms: N_17  and  C_18
REMARK    6  A    between atoms: C_18  and  C_19
REMARK    7  A    between atoms: C_19  and  C_20
REMARK                            x       y       z     vdW  Elec       q    Type
REMARK                         _______ _______ _______ _____ _____    ______ ____
ROOT
ATOM      1  N   UNL A   1     -22.185 -10.047  54.658  1.00  0.00    -0.204 N 
ATOM      2  C   UNL A   1     -21.009 -10.808  54.524  1.00  0.00    +0.252 A 
ATOM      3  O   UNL A   1     -20.281 -10.773  53.535  1.00  0.00    -0.346 OA
ATOM      4  C   UNL A   1     -20.740 -11.641  55.671  1.00  0.00    +0.174 A 
ATOM      5  N   UNL A   1     -19.696 -12.509  55.867  1.00  0.00    -0.222 NA
ATOM      6  C   UNL A   1     -19.891 -13.036  57.063  1.00  0.00    +0.036 A 
ATOM      7  N   UNL A   1     -21.049 -12.536  57.629  1.00  0.00    -0.298 N 
ATOM      8  C   UNL A   1     -21.583 -11.642  56.746  1.00  0.00    +0.110 A 
ATOM      9  N   UNL A   1     -22.737 -10.888  56.856  1.00  0.00    -0.243 N 
ATOM     10  C   UNL A   1     -23.056 -10.042  55.769  1.00  0.00    +0.253 A 
ATOM     11  O   UNL A   1     -24.063  -9.327  55.796  1.00  0.00    -0.328 OA
ATOM     12  H   UNL A   1     -21.416 -12.791  58.535  1.00  0.00    +0.203 HD
ENDROOT
BRANCH   6  13
ATOM     13  C   UNL A   1     -18.992 -14.011  57.747  1.00  0.00    +0.074 C 
ATOM     14  C   UNL A   1     -18.471 -13.477  59.083  1.00  0.00    +0.033 C 
ATOM     15  C   UNL A   1     -17.179 -14.246  59.351  1.00  0.00    +0.006 C 
ATOM     16  C   UNL A   1     -16.751 -14.850  58.015  1.00  0.00    +0.006 C 
ATOM     17  C   UNL A   1     -17.698 -14.268  56.973  1.00  0.00    +0.033 C 
ENDBRANCH   6  13
BRANCH   1  18
ATOM     18  C   UNL A   1     -22.518  -9.175  53.536  1.00  0.00    +0.184 C 
BRANCH  18  20
ATOM     19  C   UNL A   1     -22.688  -9.686  51.073  1.00  0.00    +0.016 C 
ATOM     20  C   UNL A   1     -23.298  -9.917  52.447  1.00  0.00    +0.037 C 
ENDBRANCH  18  20
ENDBRANCH   1  18
BRANCH   9  21
ATOM     21  C   UNL A   1     -23.662 -10.960  57.990  1.00  0.00    +0.172 C 
BRANCH  21  22
ATOM     22  C   UNL A   1     -23.247 -10.141  59.217  1.00  0.00    +0.035 C 
ATOM     23  C   UNL A   1     -22.796 -10.973  60.408  1.00  0.00    +0.016 C 
ENDBRANCH  21  22
ENDBRANCH   9  21
TORSDOF 5
ENDMDL
