MODEL 1
REMARK VINA RESULT:    -8.928      0.000      0.000
REMARK INTER + INTRA:         -11.808
REMARK INTER:                 -11.277
REMARK INTRA:                  -0.532
REMARK UNBOUND:                -0.532
REMARK  Name = ZM-241385
REMARK  5 active torsions:
REMARK  status: ('A' for Active; 'I' for Inactive)
REMARK    1  A    between atoms: O_1  and  C_2
REMARK    2  A    between atoms: C_5  and  C_6
REMARK    3  A    between atoms: C_6  and  C_7
REMARK    4  A    between atoms: C_7  and  N_8
REMARK    5  A    between atoms: C_13  and  C_14
REMARK                            x       y       z     vdW  Elec       q    Type
REMARK                         _______ _______ _______ _____ _____    ______ ____
ROOT
ATOM      1  N   UNL A   1      -8.194  -8.275  52.668  1.00  0.00    -0.363 N 
ATOM      2  C   UNL A   1      -8.573  -8.092  53.970  1.00  0.00    +0.177 A 
ATOM      3  N   UNL A   1      -9.102  -9.069  54.660  1.00  0.00    -0.177 NA
ATOM      4  C   UNL A   1      -9.493  -8.787  55.926  1.00  0.00    +0.233 A 
ATOM      5  N   UNL A   1     -10.033  -9.521  56.877  1.00  0.00    -0.175 NA
ATOM      6  C   UNL A   1     -10.284  -8.613  57.889  1.00  0.00    +0.209 A 
ATOM      7  N   UNL A   1      -9.905  -7.353  57.621  1.00  0.00    -0.163 NA
ATOM      8  N   UNL A   1      -9.363  -7.522  56.405  1.00  0.00    -0.169 N 
ATOM      9  C   UNL A   1      -8.762  -6.521  55.655  1.00  0.00    +0.179 A 
ATOM     10  N   UNL A   1      -8.615  -5.278  56.211  1.00  0.00    -0.360 N 
ATOM     11  N   UNL A   1      -8.374  -6.810  54.449  1.00  0.00    -0.193 NA
ATOM     12  H   UNL A   1      -7.935  -7.402  52.221  1.00  0.00    +0.200 HD
ATOM     13  H   UNL A   1      -9.200  -5.079  57.022  1.00  0.00    +0.193 HD
ATOM     14  H   UNL A   1      -8.469  -4.510  55.569  1.00  0.00    +0.193 HD
ENDROOT
BRANCH   6  15
ATOM     15  C   UNL A   1     -10.947  -8.979  59.177  1.00  0.00    +0.134 A 
ATOM     16  C   UNL A   1     -12.298  -9.200  59.371  1.00  0.00    +0.124 A 
ATOM     17  C   UNL A   1     -12.469  -9.506  60.745  1.00  0.00    +0.091 A 
ATOM     18  C   UNL A   1     -11.219  -9.441  61.309  1.00  0.00    +0.208 A 
ATOM     19  O   UNL A   1     -10.288  -9.145  60.367  1.00  0.00    -0.524 OA
ENDBRANCH   6  15
BRANCH   1  20
ATOM     20  C   UNL A   1      -8.867  -9.240  51.813  1.00  0.00    +0.155 C 
BRANCH  20  21
ATOM     21  C   UNL A   1      -7.879 -10.076  50.985  1.00  0.00    +0.089 C 
BRANCH  21  25
ATOM     22  C   UNL A   1      -6.730 -13.946  52.515  1.00  0.00    +0.033 A 
ATOM     23  C   UNL A   1      -7.127 -13.835  51.187  1.00  0.00    +0.078 A 
ATOM     24  C   UNL A   1      -7.509 -12.590  50.681  1.00  0.00    +0.026 A 
ATOM     25  C   UNL A   1      -7.513 -11.451  51.499  1.00  0.00    -0.071 A 
ATOM     26  C   UNL A   1      -7.088 -11.586  52.833  1.00  0.00    +0.026 A 
ATOM     27  C   UNL A   1      -6.705 -12.831  53.340  1.00  0.00    +0.078 A 
BRANCH  22  28
ATOM     28  O   UNL A   1      -6.353 -15.143  53.046  1.00  0.00    -0.565 OA
ATOM     29  H   UNL A   1      -6.882 -15.843  52.629  1.00  0.00    +0.334 HD
ENDBRANCH  22  28
ENDBRANCH  21  25
ENDBRANCH  20  21
ENDBRANCH   1  20
TORSDOF 5
ENDMDL
MODEL 2
REMARK VINA RESULT:    -8.908      2.518      3.840
REMARK INTER + INTRA:         -11.783
REMARK INTER:                 -11.395
REMARK INTRA:                  -0.388
REMARK UNBOUND:                -0.532
REMARK  Name = ZM-241385
REMARK  5 active torsions:
REMARK  status: ('A' for Active; 'I' for Inactive)
REMARK    1  A    between atoms: O_1  and  C_2
REMARK    2  A    between atoms: C_5  and  C_6
REMARK    3  A    between atoms: C_6  and  C_7
REMARK    4  A    between atoms: C_7  and  N_8
REMARK    5  A    between atoms: C_13  and  C_14
REMARK                            x       y       z     vdW  Elec       q    Type
REMARK                         _______ _______ _______ _____ _____    ______ ____
ROOT
ATOM      1  N   UNL A   1      -9.806 -11.798  55.170  1.00  0.00    -0.363 N 
ATOM      2  C   UNL A   1      -9.999 -11.356  56.451  1.00  0.00    +0.177 A 
ATOM      3  N   UNL A   1      -9.992 -10.078  56.729  1.00  0.00    -0.177 NA
ATOM      4  C   UNL A   1     -10.141  -9.732  58.031  1.00  0.00    +0.233 A 
ATOM      5  N   UNL A   1     -10.195  -8.567  58.643  1.00  0.00    -0.175 NA
ATOM      6  C   UNL A   1     -10.253  -8.904  59.984  1.00  0.00    +0.209 A 
ATOM      7  N   UNL A   1     -10.260 -10.223  60.232  1.00  0.00    -0.163 NA
ATOM      8  N   UNL A   1     -10.247 -10.701  58.978  1.00  0.00    -0.169 N 
ATOM      9  C   UNL A   1     -10.288 -12.046  58.637  1.00  0.00    +0.179 A 
ATOM     10  N   UNL A   1     -10.446 -12.974  59.632  1.00  0.00    -0.360 N 
ATOM     11  N   UNL A   1     -10.163 -12.363  57.384  1.00  0.00    -0.193 NA
ATOM     12  H   UNL A   1      -9.696 -12.805  55.127  1.00  0.00    +0.200 HD
ATOM     13  H   UNL A   1     -10.243 -12.653  60.579  1.00  0.00    +0.193 HD
ATOM     14  H   UNL A   1     -10.170 -13.922  59.415  1.00  0.00    +0.193 HD
ENDROOT
BRANCH   6  15
ATOM     15  C   UNL A   1     -10.281  -7.895  61.084  1.00  0.00    +0.134 A 
ATOM     16  C   UNL A   1      -9.513  -7.913  62.234  1.00  0.00    +0.124 A 
ATOM     17  C   UNL A   1      -9.882  -6.772  62.991  1.00  0.00    +0.091 A 
ATOM     18  C   UNL A   1     -10.859  -6.134  62.267  1.00  0.00    +0.208 A 
ATOM     19  O   UNL A   1     -11.093  -6.791  61.103  1.00  0.00    -0.524 OA
ENDBRANCH   6  15
BRANCH   1  20
ATOM     20  C   UNL A   1      -9.006 -11.040  54.221  1.00  0.00    +0.155 C 
BRANCH  20  21
ATOM     21  C   UNL A   1      -9.297 -11.434  52.764  1.00  0.00    +0.089 C 
BRANCH  21  25
ATOM     22  C   UNL A   1      -6.637 -14.166  50.741  1.00  0.00    +0.033 A 
ATOM     23  C   UNL A   1      -6.508 -13.991  52.114  1.00  0.00    +0.078 A 
ATOM     24  C   UNL A   1      -7.358 -13.103  52.780  1.00  0.00    +0.026 A 
ATOM     25  C   UNL A   1      -8.329 -12.374  52.080  1.00  0.00    -0.071 A 
ATOM     26  C   UNL A   1      -8.452 -12.585  50.695  1.00  0.00    +0.026 A 
ATOM     27  C   UNL A   1      -7.603 -13.472  50.028  1.00  0.00    +0.078 A 
BRANCH  22  28
ATOM     28  O   UNL A   1      -5.826 -15.020  50.055  1.00  0.00    -0.565 OA
ATOM     29  H   UNL A   1      -6.153 -15.925  50.186  1.00  0.00    +0.334 HD
ENDBRANCH  22  28
ENDBRANCH  21  25
ENDBRANCH  20  21
ENDBRANCH   1  20
TORSDOF 5
ENDMDL
MODEL 3
REMARK VINA RESULT:    -8.627      2.264      3.422
REMARK INTER + INTRA:         -11.428
REMARK INTER:                 -11.067
REMARK INTRA:                  -0.362
REMARK UNBOUND:                -0.532
REMARK  Name = ZM-241385
REMARK  5 active torsions:
REMARK  status: ('A' for Active; 'I' for Inactive)
REMARK    1  A    between atoms: O_1  and  C_2
REMARK    2  A    between atoms: C_5  and  C_6
REMARK    3  A    between atoms: C_6  and  C_7
REMARK    4  A    between atoms: C_7  and  N_8
REMARK    5  A    between atoms: C_13  and  C_14
REMARK                            x       y       z     vdW  Elec       q    Type
REMARK                         _______ _______ _______ _____ _____    ______ ____
ROOT
ATOM      1  N   UNL A   1      -9.164 -11.117  54.994  1.00  0.00    -0.363 N 
ATOM      2  C   UNL A   1      -9.491 -11.035  56.320  1.00  0.00    +0.177 A 
ATOM      3  N   UNL A   1     -10.224 -10.052  56.773  1.00  0.00    -0.177 NA
ATOM      4  C   UNL A   1     -10.458 -10.023  58.107  1.00  0.00    +0.233 A 
ATOM      5  N   UNL A   1     -11.150  -9.205  58.874  1.00  0.00    -0.175 NA
ATOM      6  C   UNL A   1     -10.903  -9.668  60.154  1.00  0.00    +0.209 A 
ATOM      7  N   UNL A   1     -10.109 -10.749  60.217  1.00  0.00    -0.163 NA
ATOM      8  N   UNL A   1      -9.902 -10.968  58.910  1.00  0.00    -0.169 N 
ATOM      9  C   UNL A   1      -9.160 -12.019  58.386  1.00  0.00    +0.179 A 
ATOM     10  N   UNL A   1      -8.667 -12.968  59.240  1.00  0.00    -0.360 N 
ATOM     11  N   UNL A   1      -8.960 -12.044  57.102  1.00  0.00    -0.193 NA
ATOM     12  H   UNL A   1      -8.481 -11.844  54.814  1.00  0.00    +0.200 HD
ATOM     13  H   UNL A   1      -8.628 -12.707  60.225  1.00  0.00    +0.193 HD
ATOM     14  H   UNL A   1      -7.898 -13.529  58.898  1.00  0.00    +0.193 HD
ENDROOT
BRANCH   6  15
ATOM     15  C   UNL A   1     -11.447  -9.017  61.383  1.00  0.00    +0.134 A 
ATOM     16  C   UNL A   1     -12.297  -9.593  62.309  1.00  0.00    +0.124 A 
ATOM     17  C   UNL A   1     -12.559  -8.607  63.294  1.00  0.00    +0.091 A 
ATOM     18  C   UNL A   1     -11.865  -7.487  62.905  1.00  0.00    +0.208 A 
ATOM     19  O   UNL A   1     -11.172  -7.730  61.764  1.00  0.00    -0.524 OA
ENDBRANCH   6  15
BRANCH   1  20
ATOM     20  C   UNL A   1      -9.038  -9.923  54.172  1.00  0.00    +0.155 C 
BRANCH  20  21
ATOM     21  C   UNL A   1      -7.853 -10.007  53.198  1.00  0.00    +0.089 C 
BRANCH  21  25
ATOM     22  C   UNL A   1      -7.103 -13.712  51.112  1.00  0.00    +0.033 A 
ATOM     23  C   UNL A   1      -8.006 -12.804  50.572  1.00  0.00    +0.078 A 
ATOM     24  C   UNL A   1      -8.265 -11.604  51.241  1.00  0.00    +0.026 A 
ATOM     25  C   UNL A   1      -7.636 -11.310  52.459  1.00  0.00    -0.071 A 
ATOM     26  C   UNL A   1      -6.711 -12.236  52.974  1.00  0.00    +0.026 A 
ATOM     27  C   UNL A   1      -6.452 -13.436  52.305  1.00  0.00    +0.078 A 
BRANCH  22  28
ATOM     28  O   UNL A   1      -6.827 -14.894  50.491  1.00  0.00    -0.565 OA
ATOM     29  H   UNL A   1      -7.606 -15.469  50.568  1.00  0.00    +0.334 HD
ENDBRANCH  22  28
ENDBRANCH  21  25
ENDBRANCH  20  21
ENDBRANCH   1  20
TORSDOF 5
ENDMDL
MODEL 4
REMARK VINA RESULT:    -8.566      1.872      7.029
REMARK INTER + INTRA:         -11.351
REMARK INTER:                 -11.027
REMARK INTRA:                  -0.323
REMARK UNBOUND:                -0.532
REMARK  Name = ZM-241385
REMARK  5 active torsions:
REMARK  status: ('A' for Active; 'I' for Inactive)
REMARK    1  A    between atoms: O_1  and  C_2
REMARK    2  A    between atoms: C_5  and  C_6
REMARK    3  A    between atoms: C_6  and  C_7
REMARK    4  A    between atoms: C_7  and  N_8
REMARK    5  A    between atoms: C_13  and  C_14
REMARK                            x       y       z     vdW  Elec       q    Type
REMARK                         _______ _______ _______ _____ _____    ______ ____
ROOT
ATOM      1  N   UNL A   1      -9.337  -6.654  55.878  1.00  0.00    -0.363 N 
ATOM      2  C   UNL A   1      -8.885  -7.488  54.891  1.00  0.00    +0.177 A 
ATOM      3  N   UNL A   1      -8.999  -8.786  55.003  1.00  0.00    -0.177 NA
ATOM      4  C   UNL A   1      -8.480  -9.537  54.002  1.00  0.00    +0.233 A 
ATOM      5  N   UNL A   1      -8.436 -10.838  53.794  1.00  0.00    -0.175 NA
ATOM      6  C   UNL A   1      -7.677 -10.959  52.643  1.00  0.00    +0.209 A 
ATOM      7  N   UNL A   1      -7.267  -9.795  52.115  1.00  0.00    -0.163 NA
ATOM      8  N   UNL A   1      -7.841  -8.932  52.967  1.00  0.00    -0.169 N 
ATOM      9  C   UNL A   1      -7.775  -7.549  52.865  1.00  0.00    +0.179 A 
ATOM     10  N   UNL A   1      -7.161  -6.997  51.772  1.00  0.00    -0.360 N 
ATOM     11  N   UNL A   1      -8.293  -6.841  53.822  1.00  0.00    -0.193 NA
ATOM     12  H   UNL A   1      -9.057  -5.693  55.722  1.00  0.00    +0.200 HD
ATOM     13  H   UNL A   1      -6.547  -7.616  51.244  1.00  0.00    +0.193 HD
ATOM     14  H   UNL A   1      -6.856  -6.038  51.862  1.00  0.00    +0.193 HD
ENDROOT
BRANCH   6  15
ATOM     15  C   UNL A   1      -7.312 -12.273  52.035  1.00  0.00    +0.134 A 
ATOM     16  C   UNL A   1      -6.545 -13.263  52.621  1.00  0.00    +0.124 A 
ATOM     17  C   UNL A   1      -6.449 -14.319  51.678  1.00  0.00    +0.091 A 
ATOM     18  C   UNL A   1      -7.150 -13.906  50.572  1.00  0.00    +0.208 A 
ATOM     19  O   UNL A   1      -7.694 -12.681  50.784  1.00  0.00    -0.524 OA
ENDBRANCH   6  15
BRANCH   1  20
ATOM     20  C   UNL A   1      -9.370  -7.078  57.269  1.00  0.00    +0.155 C 
BRANCH  20  21
ATOM     21  C   UNL A   1     -10.624  -7.902  57.600  1.00  0.00    +0.089 C 
BRANCH  21  25
ATOM     22  C   UNL A   1      -9.940 -11.902  59.073  1.00  0.00    +0.033 A 
ATOM     23  C   UNL A   1     -10.582 -11.733  57.852  1.00  0.00    +0.078 A 
ATOM     24  C   UNL A   1     -10.817 -10.443  57.367  1.00  0.00    +0.026 A 
ATOM     25  C   UNL A   1     -10.428  -9.316  58.103  1.00  0.00    -0.071 A 
ATOM     26  C   UNL A   1      -9.761  -9.514  59.326  1.00  0.00    +0.026 A 
ATOM     27  C   UNL A   1      -9.526 -10.803  59.812  1.00  0.00    +0.078 A 
BRANCH  22  28
ATOM     28  O   UNL A   1      -9.695 -13.143  59.581  1.00  0.00    -0.565 OA
ATOM     29  H   UNL A   1     -10.392 -13.354  60.223  1.00  0.00    +0.334 HD
ENDBRANCH  22  28
ENDBRANCH  21  25
ENDBRANCH  20  21
ENDBRANCH   1  20
TORSDOF 5
ENDMDL
MODEL 5
REMARK VINA RESULT:    -8.557      3.519      4.995
REMARK INTER + INTRA:         -11.340
REMARK INTER:                 -10.721
REMARK INTRA:                  -0.619
REMARK UNBOUND:                -0.532
REMARK  Name = ZM-241385
REMARK  5 active torsions:
REMARK  status: ('A' for Active; 'I' for Inactive)
REMARK    1  A    between atoms: O_1  and  C_2
REMARK    2  A    between atoms: C_5  and  C_6
REMARK    3  A    between atoms: C_6  and  C_7
REMARK    4  A    between atoms: C_7  and  N_8
REMARK    5  A    between atoms: C_13  and  C_14
REMARK                            x       y       z     vdW  Elec       q    Type
REMARK                         _______ _______ _______ _____ _____    ______ ____
ROOT
ATOM      1  N   UNL A   1      -9.846 -12.466  55.111  1.00  0.00    -0.363 N 
ATOM      2  C   UNL A   1     -10.034 -11.984  56.378  1.00  0.00    +0.177 A 
ATOM      3  N   UNL A   1     -10.821 -10.964  56.599  1.00  0.00    -0.177 NA
ATOM      4  C   UNL A   1     -10.910 -10.522  57.877  1.00  0.00    +0.233 A 
ATOM      5  N   UNL A   1     -11.603  -9.553  58.439  1.00  0.00    -0.175 NA
ATOM      6  C   UNL A   1     -11.167  -9.557  59.752  1.00  0.00    +0.209 A 
ATOM      7  N   UNL A   1     -10.253 -10.497  60.037  1.00  0.00    -0.163 NA
ATOM      8  N   UNL A   1     -10.166 -11.113  58.848  1.00  0.00    -0.169 N 
ATOM      9  C   UNL A   1      -9.371 -12.219  58.579  1.00  0.00    +0.179 A 
ATOM     10  N   UNL A   1      -8.682 -12.802  59.610  1.00  0.00    -0.360 N 
ATOM     11  N   UNL A   1      -9.310 -12.644  57.353  1.00  0.00    -0.193 NA
ATOM     12  H   UNL A   1      -9.108 -13.160  55.073  1.00  0.00    +0.200 HD
ATOM     13  H   UNL A   1      -8.567 -12.233  60.448  1.00  0.00    +0.193 HD
ATOM     14  H   UNL A   1      -7.897 -13.385  59.356  1.00  0.00    +0.193 HD
ENDROOT
BRANCH   6  15
ATOM     15  C   UNL A   1     -11.645  -8.585  60.780  1.00  0.00    +0.134 A 
ATOM     16  C   UNL A   1     -11.865  -7.233  60.591  1.00  0.00    +0.124 A 
ATOM     17  C   UNL A   1     -12.298  -6.711  61.837  1.00  0.00    +0.091 A 
ATOM     18  C   UNL A   1     -12.305  -7.769  62.712  1.00  0.00    +0.208 A 
ATOM     19  O   UNL A   1     -11.933  -8.911  62.079  1.00  0.00    -0.524 OA
ENDBRANCH   6  15
BRANCH   1  20
ATOM     20  C   UNL A   1      -9.948 -11.597  53.949  1.00  0.00    +0.155 C 
BRANCH  20  21
ATOM     21  C   UNL A   1      -8.617 -10.902  53.622  1.00  0.00    +0.089 C 
BRANCH  21  25
ATOM     22  C   UNL A   1      -8.302  -6.613  54.007  1.00  0.00    +0.033 A 
ATOM     23  C   UNL A   1      -8.906  -7.340  55.026  1.00  0.00    +0.078 A 
ATOM     24  C   UNL A   1      -9.022  -8.728  54.910  1.00  0.00    +0.026 A 
ATOM     25  C   UNL A   1      -8.551  -9.397  53.772  1.00  0.00    -0.071 A 
ATOM     26  C   UNL A   1      -7.925  -8.641  52.765  1.00  0.00    +0.026 A 
ATOM     27  C   UNL A   1      -7.809  -7.253  52.879  1.00  0.00    +0.078 A 
BRANCH  22  28
ATOM     28  O   UNL A   1      -8.173  -5.258  54.081  1.00  0.00    -0.565 OA
ATOM     29  H   UNL A   1      -8.642  -4.950  54.873  1.00  0.00    +0.334 HD
ENDBRANCH  22  28
ENDBRANCH  21  25
ENDBRANCH  20  21
ENDBRANCH   1  20
TORSDOF 5
ENDMDL
MODEL 6
REMARK VINA RESULT:    -8.414      3.679      5.708
REMARK INTER + INTRA:         -11.160
REMARK INTER:                 -10.728
REMARK INTRA:                  -0.432
REMARK UNBOUND:                -0.532
REMARK  Name = ZM-241385
REMARK  5 active torsions:
REMARK  status: ('A' for Active; 'I' for Inactive)
REMARK    1  A    between atoms: O_1  and  C_2
REMARK    2  A    between atoms: C_5  and  C_6
REMARK    3  A    between atoms: C_6  and  C_7
REMARK    4  A    between atoms: C_7  and  N_8
REMARK    5  A    between atoms: C_13  and  C_14
REMARK                            x       y       z     vdW  Elec       q    Type
REMARK                         _______ _______ _______ _____ _____    ______ ____
ROOT
ATOM      1  N   UNL A   1     -10.197  -8.655  57.055  1.00  0.00    -0.363 N 
ATOM      2  C   UNL A   1     -10.218  -8.328  58.384  1.00  0.00    +0.177 A 
ATOM      3  N   UNL A   1     -11.040  -7.420  58.840  1.00  0.00    -0.177 NA
ATOM      4  C   UNL A   1     -10.958  -7.124  60.160  1.00  0.00    +0.233 A 
ATOM      5  N   UNL A   1     -11.629  -6.292  60.930  1.00  0.00    -0.175 NA
ATOM      6  C   UNL A   1     -10.989  -6.389  62.152  1.00  0.00    +0.209 A 
ATOM      7  N   UNL A   1      -9.966  -7.258  62.184  1.00  0.00    -0.163 NA
ATOM      8  N   UNL A   1     -10.022  -7.736  60.931  1.00  0.00    -0.169 N 
ATOM      9  C   UNL A   1      -9.192  -8.723  60.417  1.00  0.00    +0.179 A 
ATOM     10  N   UNL A   1      -8.302  -9.339  61.256  1.00  0.00    -0.360 N 
ATOM     11  N   UNL A   1      -9.294  -9.010  59.154  1.00  0.00    -0.193 NA
ATOM     12  H   UNL A   1      -9.420  -9.265  56.824  1.00  0.00    +0.200 HD
ATOM     13  H   UNL A   1      -8.100  -8.852  62.129  1.00  0.00    +0.193 HD
ATOM     14  H   UNL A   1      -7.522  -9.811  60.819  1.00  0.00    +0.193 HD
ENDROOT
BRANCH   6  15
ATOM     15  C   UNL A   1     -11.373  -5.581  63.348  1.00  0.00    +0.134 A 
ATOM     16  C   UNL A   1     -12.628  -5.515  63.925  1.00  0.00    +0.124 A 
ATOM     17  C   UNL A   1     -12.529  -4.621  65.021  1.00  0.00    +0.091 A 
ATOM     18  C   UNL A   1     -11.226  -4.186  65.041  1.00  0.00    +0.208 A 
ATOM     19  O   UNL A   1     -10.513  -4.776  64.048  1.00  0.00    -0.524 OA
ENDBRANCH   6  15
BRANCH   1  20
ATOM     20  C   UNL A   1     -10.555  -7.685  56.032  1.00  0.00    +0.155 C 
BRANCH  20  21
ATOM     21  C   UNL A   1      -9.406  -6.712  55.722  1.00  0.00    +0.089 C 
BRANCH  21  25
ATOM     22  C   UNL A   1      -7.225  -7.338  52.050  1.00  0.00    +0.033 A 
ATOM     23  C   UNL A   1      -7.271  -6.062  52.598  1.00  0.00    +0.078 A 
ATOM     24  C   UNL A   1      -7.981  -5.844  53.782  1.00  0.00    +0.026 A 
ATOM     25  C   UNL A   1      -8.660  -6.893  54.418  1.00  0.00    -0.071 A 
ATOM     26  C   UNL A   1      -8.580  -8.178  53.854  1.00  0.00    +0.026 A 
ATOM     27  C   UNL A   1      -7.871  -8.398  52.670  1.00  0.00    +0.078 A 
BRANCH  22  28
ATOM     28  O   UNL A   1      -6.546  -7.591  50.895  1.00  0.00    -0.565 OA
ATOM     29  H   UNL A   1      -5.890  -6.886  50.765  1.00  0.00    +0.334 HD
ENDBRANCH  22  28
ENDBRANCH  21  25
ENDBRANCH  20  21
ENDBRANCH   1  20
TORSDOF 5
ENDMDL
MODEL 7
REMARK VINA RESULT:    -8.327      1.901      2.771
REMARK INTER + INTRA:         -11.049
REMARK INTER:                 -10.686
REMARK INTRA:                  -0.363
REMARK UNBOUND:                -0.532
REMARK  Name = ZM-241385
REMARK  5 active torsions:
REMARK  status: ('A' for Active; 'I' for Inactive)
REMARK    1  A    between atoms: O_1  and  C_2
REMARK    2  A    between atoms: C_5  and  C_6
REMARK    3  A    between atoms: C_6  and  C_7
REMARK    4  A    between atoms: C_7  and  N_8
REMARK    5  A    between atoms: C_13  and  C_14
REMARK                            x       y       z     vdW  Elec       q    Type
REMARK                         _______ _______ _______ _____ _____    ______ ____
ROOT
ATOM      1  N   UNL A   1      -8.971 -10.080  55.021  1.00  0.00    -0.363 N 
ATOM      2  C   UNL A   1      -9.460  -9.810  56.270  1.00  0.00    +0.177 A 
ATOM      3  N   UNL A   1      -9.829 -10.775  57.071  1.00  0.00    -0.177 NA
ATOM      4  C   UNL A   1     -10.348 -10.415  58.270  1.00  0.00    +0.233 A 
ATOM      5  N   UNL A   1     -10.792 -11.114  59.295  1.00  0.00    -0.175 NA
ATOM      6  C   UNL A   1     -11.281 -10.151  60.160  1.00  0.00    +0.209 A 
ATOM      7  N   UNL A   1     -11.140  -8.887  59.731  1.00  0.00    -0.163 NA
ATOM      8  N   UNL A   1     -10.500  -9.099  58.570  1.00  0.00    -0.169 N 
ATOM      9  C   UNL A   1     -10.061  -8.103  57.709  1.00  0.00    +0.179 A 
ATOM     10  N   UNL A   1     -10.197  -6.795  58.089  1.00  0.00    -0.360 N 
ATOM     11  N   UNL A   1      -9.548  -8.463  56.571  1.00  0.00    -0.193 NA
ATOM     12  H   UNL A   1      -8.861  -9.239  54.465  1.00  0.00    +0.200 HD
ATOM     13  H   UNL A   1     -10.859  -6.615  58.844  1.00  0.00    +0.193 HD
ATOM     14  H   UNL A   1     -10.164  -6.104  57.352  1.00  0.00    +0.193 HD
ENDROOT
BRANCH   6  15
ATOM     15  C   UNL A   1     -11.938 -10.473  61.461  1.00  0.00    +0.134 A 
ATOM     16  C   UNL A   1     -13.299 -10.516  61.705  1.00  0.00    +0.124 A 
ATOM     17  C   UNL A   1     -13.460 -10.848  63.074  1.00  0.00    +0.091 A 
ATOM     18  C   UNL A   1     -12.192 -10.975  63.586  1.00  0.00    +0.208 A 
ATOM     19  O   UNL A   1     -11.265 -10.772  62.616  1.00  0.00    -0.524 OA
ENDBRANCH   6  15
BRANCH   1  20
ATOM     20  C   UNL A   1      -9.386 -11.265  54.286  1.00  0.00    +0.155 C 
BRANCH  20  21
ATOM     21  C   UNL A   1      -9.143 -11.130  52.775  1.00  0.00    +0.089 C 
BRANCH  21  25
ATOM     22  C   UNL A   1      -6.665 -14.077  50.823  1.00  0.00    +0.033 A 
ATOM     23  C   UNL A   1      -6.459 -13.809  52.171  1.00  0.00    +0.078 A 
ATOM     24  C   UNL A   1      -7.249 -12.851  52.814  1.00  0.00    +0.026 A 
ATOM     25  C   UNL A   1      -8.237 -12.145  52.112  1.00  0.00    -0.071 A 
ATOM     26  C   UNL A   1      -8.439 -12.451  50.755  1.00  0.00    +0.026 A 
ATOM     27  C   UNL A   1      -7.649 -13.408  50.111  1.00  0.00    +0.078 A 
BRANCH  22  28
ATOM     28  O   UNL A   1      -5.913 -15.002  50.161  1.00  0.00    -0.565 OA
ATOM     29  H   UNL A   1      -6.508 -15.554  49.628  1.00  0.00    +0.334 HD
ENDBRANCH  22  28
ENDBRANCH  21  25
ENDBRANCH  20  21
ENDBRANCH   1  20
TORSDOF 5
ENDMDL
MODEL 8
REMARK VINA RESULT:    -8.298      3.108      7.554
REMARK INTER + INTRA:         -11.012
REMARK INTER:                 -10.591
REMARK INTRA:                  -0.422
REMARK UNBOUND:                -0.532
REMARK  Name = ZM-241385
REMARK  5 active torsions:
REMARK  status: ('A' for Active; 'I' for Inactive)
REMARK    1  A    between atoms: O_1  and  C_2
REMARK    2  A    between atoms: C_5  and  C_6
REMARK    3  A    between atoms: C_6  and  C_7
REMARK    4  A    between atoms: C_7  and  N_8
REMARK    5  A    between atoms: C_13  and  C_14
REMARK                            x       y       z     vdW  Elec       q    Type
REMARK                         _______ _______ _______ _____ _____    ______ ____
ROOT
ATOM      1  N   UNL A   1     -10.146  -9.713  57.728  1.00  0.00    -0.363 N 
ATOM      2  C   UNL A   1      -9.934 -10.612  56.717  1.00  0.00    +0.177 A 
ATOM      3  N   UNL A   1      -8.894 -10.508  55.932  1.00  0.00    -0.177 NA
ATOM      4  C   UNL A   1      -8.790 -11.412  54.927  1.00  0.00    +0.233 A 
ATOM      5  N   UNL A   1      -7.885 -11.600  53.988  1.00  0.00    -0.175 NA
ATOM      6  C   UNL A   1      -8.419 -12.619  53.219  1.00  0.00    +0.209 A 
ATOM      7  N   UNL A   1      -9.602 -13.087  53.649  1.00  0.00    -0.163 NA
ATOM      8  N   UNL A   1      -9.766 -12.341  54.752  1.00  0.00    -0.169 N 
ATOM      9  C   UNL A   1     -10.836 -12.442  55.631  1.00  0.00    +0.179 A 
ATOM     10  N   UNL A   1     -11.762 -13.431  55.431  1.00  0.00    -0.360 N 
ATOM     11  N   UNL A   1     -10.913 -11.582  56.601  1.00  0.00    -0.193 NA
ATOM     12  H   UNL A   1     -11.055  -9.832  58.159  1.00  0.00    +0.200 HD
ATOM     13  H   UNL A   1     -11.772 -13.853  54.503  1.00  0.00    +0.193 HD
ATOM     14  H   UNL A   1     -12.663 -13.303  55.872  1.00  0.00    +0.193 HD
ENDROOT
BRANCH   6  15
ATOM     15  C   UNL A   1      -7.760 -13.153  51.990  1.00  0.00    +0.134 A 
ATOM     16  C   UNL A   1      -8.090 -12.846  50.683  1.00  0.00    +0.124 A 
ATOM     17  C   UNL A   1      -7.213 -13.591  49.854  1.00  0.00    +0.091 A 
ATOM     18  C   UNL A   1      -6.410 -14.315  50.701  1.00  0.00    +0.208 A 
ATOM     19  O   UNL A   1      -6.717 -14.042  51.994  1.00  0.00    -0.524 OA
ENDBRANCH   6  15
BRANCH   1  20
ATOM     20  C   UNL A   1      -9.675  -8.341  57.629  1.00  0.00    +0.155 C 
BRANCH  20  21
ATOM     21  C   UNL A   1     -10.351  -7.573  56.482  1.00  0.00    +0.089 C 
BRANCH  21  25
ATOM     22  C   UNL A   1      -7.792  -6.230  53.275  1.00  0.00    +0.033 A 
ATOM     23  C   UNL A   1      -7.931  -5.434  54.406  1.00  0.00    +0.078 A 
ATOM     24  C   UNL A   1      -8.763  -5.852  55.448  1.00  0.00    +0.026 A 
ATOM     25  C   UNL A   1      -9.472  -7.059  55.362  1.00  0.00    -0.071 A 
ATOM     26  C   UNL A   1      -9.297  -7.856  54.217  1.00  0.00    +0.026 A 
ATOM     27  C   UNL A   1      -8.466  -7.438  53.174  1.00  0.00    +0.078 A 
BRANCH  22  28
ATOM     28  O   UNL A   1      -6.993  -5.855  52.236  1.00  0.00    -0.565 OA
ATOM     29  H   UNL A   1      -7.312  -5.003  51.896  1.00  0.00    +0.334 HD
ENDBRANCH  22  28
ENDBRANCH  21  25
ENDBRANCH  20  21
ENDBRANCH   1  20
TORSDOF 5
ENDMDL
MODEL 9
REMARK VINA RESULT:    -8.271      3.196      8.259
REMARK INTER + INTRA:         -10.978
REMARK INTER:                 -10.415
REMARK INTRA:                  -0.563
REMARK UNBOUND:                -0.532
REMARK  Name = ZM-241385
REMARK  5 active torsions:
REMARK  status: ('A' for Active; 'I' for Inactive)
REMARK    1  A    between atoms: O_1  and  C_2
REMARK    2  A    between atoms: C_5  and  C_6
REMARK    3  A    between atoms: C_6  and  C_7
REMARK    4  A    between atoms: C_7  and  N_8
REMARK    5  A    between atoms: C_13  and  C_14
REMARK                            x       y       z     vdW  Elec       q    Type
REMARK                         _______ _______ _______ _____ _____    ______ ____
ROOT
ATOM      1  N   UNL A   1      -9.280 -11.935  55.684  1.00  0.00    -0.363 N 
ATOM      2  C   UNL A   1      -8.616 -11.252  54.702  1.00  0.00    +0.177 A 
ATOM      3  N   UNL A   1      -8.747  -9.957  54.576  1.00  0.00    -0.177 NA
ATOM      4  C   UNL A   1      -8.092  -9.369  53.546  1.00  0.00    +0.233 A 
ATOM      5  N   UNL A   1      -7.996  -8.117  53.149  1.00  0.00    -0.175 NA
ATOM      6  C   UNL A   1      -7.267  -8.200  51.976  1.00  0.00    +0.209 A 
ATOM      7  N   UNL A   1      -6.885  -9.442  51.639  1.00  0.00    -0.163 NA
ATOM      8  N   UNL A   1      -7.375 -10.132  52.680  1.00  0.00    -0.169 N 
ATOM      9  C   UNL A   1      -7.228 -11.500  52.870  1.00  0.00    +0.179 A 
ATOM     10  N   UNL A   1      -6.452 -12.208  51.991  1.00  0.00    -0.360 N 
ATOM     11  N   UNL A   1      -7.847 -12.047  53.872  1.00  0.00    -0.193 NA
ATOM     12  H   UNL A   1      -9.196 -12.939  55.573  1.00  0.00    +0.200 HD
ATOM     13  H   UNL A   1      -6.259 -11.754  51.099  1.00  0.00    +0.193 HD
ATOM     14  H   UNL A   1      -6.603 -13.207  51.958  1.00  0.00    +0.193 HD
ENDROOT
BRANCH   6  15
ATOM     15  C   UNL A   1      -6.940  -7.017  51.126  1.00  0.00    +0.134 A 
ATOM     16  C   UNL A   1      -6.430  -7.046  49.841  1.00  0.00    +0.124 A 
ATOM     17  C   UNL A   1      -6.266  -5.697  49.435  1.00  0.00    +0.091 A 
ATOM     18  C   UNL A   1      -6.672  -4.927  50.498  1.00  0.00    +0.208 A 
ATOM     19  O   UNL A   1      -7.102  -5.713  51.517  1.00  0.00    -0.524 OA
ENDBRANCH   6  15
BRANCH   1  20
ATOM     20  C   UNL A   1     -10.558 -11.468  56.197  1.00  0.00    +0.155 C 
BRANCH  20  21
ATOM     21  C   UNL A   1     -10.560 -11.334  57.728  1.00  0.00    +0.089 C 
BRANCH  21  25
ATOM     22  C   UNL A   1     -11.099  -7.393  59.406  1.00  0.00    +0.033 A 
ATOM     23  C   UNL A   1     -11.823  -8.456  59.934  1.00  0.00    +0.078 A 
ATOM     24  C   UNL A   1     -11.664  -9.736  59.394  1.00  0.00    +0.026 A 
ATOM     25  C   UNL A   1     -10.795  -9.960  58.317  1.00  0.00    -0.071 A 
ATOM     26  C   UNL A   1     -10.059  -8.871  57.815  1.00  0.00    +0.026 A 
ATOM     27  C   UNL A   1     -10.217  -7.591  58.354  1.00  0.00    +0.078 A 
BRANCH  22  28
ATOM     28  O   UNL A   1     -11.229  -6.130  59.902  1.00  0.00    -0.565 OA
ATOM     29  H   UNL A   1     -11.857  -5.645  59.344  1.00  0.00    +0.334 HD
ENDBRANCH  22  28
ENDBRANCH  21  25
ENDBRANCH  20  21
ENDBRANCH   1  20
TORSDOF 5
ENDMDL
MODEL 10
REMARK VINA RESULT:    -8.246      3.160      8.821
REMARK INTER + INTRA:         -10.946
REMARK INTER:                 -10.545
REMARK INTRA:                  -0.401
REMARK UNBOUND:                -0.532
REMARK  Name = ZM-241385
REMARK  5 active torsions:
REMARK  status: ('A' for Active; 'I' for Inactive)
REMARK    1  A    between atoms: O_1  and  C_2
REMARK    2  A    between atoms: C_5  and  C_6
REMARK    3  A    between atoms: C_6  and  C_7
REMARK    4  A    between atoms: C_7  and  N_8
REMARK    5  A    between atoms: C_13  and  C_14
REMARK                            x       y       z     vdW  Elec       q    Type
REMARK                         _______ _______ _______ _____ _____    ______ ____
ROOT
ATOM      1  N   UNL A   1     -10.371 -12.386  58.183  1.00  0.00    -0.363 N 
ATOM      2  C   UNL A   1     -10.163 -12.188  56.845  1.00  0.00    +0.177 A 
ATOM      3  N   UNL A   1      -9.265 -11.338  56.422  1.00  0.00    -0.177 NA
ATOM      4  C   UNL A   1      -9.160 -11.169  55.082  1.00  0.00    +0.233 A 
ATOM      5  N   UNL A   1      -8.371 -10.424  54.336  1.00  0.00    -0.175 NA
ATOM      6  C   UNL A   1      -8.843 -10.630  53.052  1.00  0.00    +0.209 A 
ATOM      7  N   UNL A   1      -9.874 -11.485  52.963  1.00  0.00    -0.163 NA
ATOM      8  N   UNL A   1     -10.000 -11.840  54.251  1.00  0.00    -0.169 N 
ATOM      9  C   UNL A   1     -10.916 -12.763  54.737  1.00  0.00    +0.179 A 
ATOM     10  N   UNL A   1     -11.701 -13.445  53.846  1.00  0.00    -0.360 N 
ATOM     11  N   UNL A   1     -10.992 -12.929  56.023  1.00  0.00    -0.193 NA
ATOM     12  H   UNL A   1     -11.187 -12.960  58.362  1.00  0.00    +0.200 HD
ATOM     13  H   UNL A   1     -11.772 -13.041  52.912  1.00  0.00    +0.193 HD
ATOM     14  H   UNL A   1     -12.545 -13.863  54.214  1.00  0.00    +0.193 HD
ENDROOT
BRANCH   6  15
ATOM     15  C   UNL A   1      -8.281  -9.946  51.850  1.00  0.00    +0.134 A 
ATOM     16  C   UNL A   1      -7.255  -9.019  51.838  1.00  0.00    +0.124 A 
ATOM     17  C   UNL A   1      -7.067  -8.633  50.486  1.00  0.00    +0.091 A 
ATOM     18  C   UNL A   1      -7.995  -9.335  49.757  1.00  0.00    +0.208 A 
ATOM     19  O   UNL A   1      -8.719 -10.148  50.567  1.00  0.00    -0.524 OA
ENDBRANCH   6  15
BRANCH   1  20
ATOM     20  C   UNL A   1     -10.129 -11.326  59.150  1.00  0.00    +0.155 C 
BRANCH  20  21
ATOM     21  C   UNL A   1     -11.208 -10.233  59.101  1.00  0.00    +0.089 C 
BRANCH  21  25
ATOM     22  C   UNL A   1     -10.733  -6.715  61.558  1.00  0.00    +0.033 A 
ATOM     23  C   UNL A   1      -9.837  -7.768  61.706  1.00  0.00    +0.078 A 
ATOM     24  C   UNL A   1      -9.985  -8.916  60.922  1.00  0.00    +0.026 A 
ATOM     25  C   UNL A   1     -11.034  -9.027  59.999  1.00  0.00    -0.071 A 
ATOM     26  C   UNL A   1     -11.913  -7.940  59.854  1.00  0.00    +0.026 A 
ATOM     27  C   UNL A   1     -11.767  -6.791  60.637  1.00  0.00    +0.078 A 
BRANCH  22  28
ATOM     28  O   UNL A   1     -10.624  -5.580  62.305  1.00  0.00    -0.565 OA
ATOM     29  H   UNL A   1     -10.146  -5.797  63.122  1.00  0.00    +0.334 HD
ENDBRANCH  22  28
ENDBRANCH  21  25
ENDBRANCH  20  21
ENDBRANCH   1  20
TORSDOF 5
ENDMDL
MODEL 11
REMARK VINA RESULT:    -8.140      3.158      6.140
REMARK INTER + INTRA:         -10.813
REMARK INTER:                 -10.735
REMARK INTRA:                  -0.077
REMARK UNBOUND:                -0.532
REMARK  Name = ZM-241385
REMARK  5 active torsions:
REMARK  status: ('A' for Active; 'I' for Inactive)
REMARK    1  A    between atoms: O_1  and  C_2
REMARK    2  A    between atoms: C_5  and  C_6
REMARK    3  A    between atoms: C_6  and  C_7
REMARK    4  A    between atoms: C_7  and  N_8
REMARK    5  A    between atoms: C_13  and  C_14
REMARK                            x       y       z     vdW  Elec       q    Type
REMARK                         _______ _______ _______ _____ _____    ______ ____
ROOT
ATOM      1  N   UNL A   1      -9.859  -9.296  56.979  1.00  0.00    -0.363 N 
ATOM      2  C   UNL A   1      -9.378  -8.380  56.083  1.00  0.00    +0.177 A 
ATOM      3  N   UNL A   1      -9.041  -8.738  54.872  1.00  0.00    -0.177 NA
ATOM      4  C   UNL A   1      -8.528  -7.776  54.067  1.00  0.00    +0.233 A 
ATOM      5  N   UNL A   1      -8.111  -7.788  52.817  1.00  0.00    -0.175 NA
ATOM      6  C   UNL A   1      -7.610  -6.513  52.627  1.00  0.00    +0.209 A 
ATOM      7  N   UNL A   1      -7.716  -5.703  53.692  1.00  0.00    -0.163 NA
ATOM      8  N   UNL A   1      -8.348  -6.519  54.549  1.00  0.00    -0.169 N 
ATOM      9  C   UNL A   1      -8.754  -6.169  55.830  1.00  0.00    +0.179 A 
ATOM     10  N   UNL A   1      -8.592  -4.873  56.242  1.00  0.00    -0.360 N 
ATOM     11  N   UNL A   1      -9.262  -7.097  56.584  1.00  0.00    -0.193 NA
ATOM     12  H   UNL A   1      -9.943  -8.908  57.912  1.00  0.00    +0.200 HD
ATOM     13  H   UNL A   1      -7.934  -4.311  55.702  1.00  0.00    +0.193 HD
ATOM     14  H   UNL A   1      -8.600  -4.712  57.240  1.00  0.00    +0.193 HD
ENDROOT
BRANCH   6  15
ATOM     15  C   UNL A   1      -6.975  -6.061  51.353  1.00  0.00    +0.134 A 
ATOM     16  C   UNL A   1      -6.371  -6.868  50.406  1.00  0.00    +0.124 A 
ATOM     17  C   UNL A   1      -5.900  -6.011  49.378  1.00  0.00    +0.091 A 
ATOM     18  C   UNL A   1      -6.233  -4.735  49.764  1.00  0.00    +0.208 A 
ATOM     19  O   UNL A   1      -6.902  -4.755  50.944  1.00  0.00    -0.524 OA
ENDBRANCH   6  15
BRANCH   1  20
ATOM     20  C   UNL A   1      -9.464 -10.694  56.917  1.00  0.00    +0.155 C 
BRANCH  20  21
ATOM     21  C   UNL A   1     -10.138 -11.441  55.756  1.00  0.00    +0.089 C 
BRANCH  21  25
ATOM     22  C   UNL A   1      -7.784 -12.627  52.337  1.00  0.00    +0.033 A 
ATOM     23  C   UNL A   1      -7.153 -12.452  53.564  1.00  0.00    +0.078 A 
ATOM     24  C   UNL A   1      -7.902 -12.060  54.677  1.00  0.00    +0.026 A 
ATOM     25  C   UNL A   1      -9.280 -11.826  54.570  1.00  0.00    -0.071 A 
ATOM     26  C   UNL A   1      -9.898 -12.031  53.324  1.00  0.00    +0.026 A 
ATOM     27  C   UNL A   1      -9.150 -12.423  52.210  1.00  0.00    +0.078 A 
BRANCH  22  28
ATOM     28  O   UNL A   1      -7.087 -13.006  51.228  1.00  0.00    -0.565 OA
ATOM     29  H   UNL A   1      -6.879 -13.951  51.306  1.00  0.00    +0.334 HD
ENDBRANCH  22  28
ENDBRANCH  21  25
ENDBRANCH  20  21
ENDBRANCH   1  20
TORSDOF 5
ENDMDL
MODEL 12
REMARK VINA RESULT:    -8.077      2.101      8.782
REMARK INTER + INTRA:         -10.733
REMARK INTER:                 -10.310
REMARK INTRA:                  -0.422
REMARK UNBOUND:                -0.532
REMARK  Name = ZM-241385
REMARK  5 active torsions:
REMARK  status: ('A' for Active; 'I' for Inactive)
REMARK    1  A    between atoms: O_1  and  C_2
REMARK    2  A    between atoms: C_5  and  C_6
REMARK    3  A    between atoms: C_6  and  C_7
REMARK    4  A    between atoms: C_7  and  N_8
REMARK    5  A    between atoms: C_13  and  C_14
REMARK                            x       y       z     vdW  Elec       q    Type
REMARK                         _______ _______ _______ _____ _____    ______ ____
ROOT
ATOM      1  N   UNL A   1     -10.586  -9.787  58.131  1.00  0.00    -0.363 N 
ATOM      2  C   UNL A   1     -10.083  -9.967  56.871  1.00  0.00    +0.177 A 
ATOM      3  N   UNL A   1     -10.048 -11.154  56.324  1.00  0.00    -0.177 NA
ATOM      4  C   UNL A   1      -9.488 -11.249  55.094  1.00  0.00    +0.233 A 
ATOM      5  N   UNL A   1      -9.309 -12.262  54.271  1.00  0.00    -0.175 NA
ATOM      6  C   UNL A   1      -8.586 -11.712  53.228  1.00  0.00    +0.209 A 
ATOM      7  N   UNL A   1      -8.327 -10.400  53.353  1.00  0.00    -0.163 NA
ATOM      8  N   UNL A   1      -8.960 -10.142  54.508  1.00  0.00    -0.169 N 
ATOM      9  C   UNL A   1      -9.051  -8.892  55.105  1.00  0.00    +0.179 A 
ATOM     10  N   UNL A   1      -8.544  -7.807  54.441  1.00  0.00    -0.360 N 
ATOM     11  N   UNL A   1      -9.607  -8.814  56.276  1.00  0.00    -0.193 NA
ATOM     12  H   UNL A   1     -10.420  -8.849  58.477  1.00  0.00    +0.200 HD
ATOM     13  H   UNL A   1      -7.885  -8.009  53.690  1.00  0.00    +0.193 HD
ATOM     14  H   UNL A   1      -8.342  -6.989  55.001  1.00  0.00    +0.193 HD
ENDROOT
BRANCH   6  15
ATOM     15  C   UNL A   1      -8.101 -12.502  52.058  1.00  0.00    +0.134 A 
ATOM     16  C   UNL A   1      -7.091 -13.447  52.067  1.00  0.00    +0.124 A 
ATOM     17  C   UNL A   1      -6.966 -13.927  50.738  1.00  0.00    +0.091 A 
ATOM     18  C   UNL A   1      -7.897 -13.240  49.997  1.00  0.00    +0.208 A 
ATOM     19  O   UNL A   1      -8.603 -12.393  50.787  1.00  0.00    -0.524 OA
ENDBRANCH   6  15
BRANCH   1  20
ATOM     20  C   UNL A   1     -10.519 -10.843  59.130  1.00  0.00    +0.155 C 
BRANCH  20  21
ATOM     21  C   UNL A   1     -11.274 -10.478  60.418  1.00  0.00    +0.089 C 
BRANCH  21  25
ATOM     22  C   UNL A   1     -10.785  -6.516  62.062  1.00  0.00    +0.033 A 
ATOM     23  C   UNL A   1     -11.934  -6.809  61.336  1.00  0.00    +0.078 A 
ATOM     24  C   UNL A   1     -12.101  -8.085  60.791  1.00  0.00    +0.026 A 
ATOM     25  C   UNL A   1     -11.118  -9.071  60.954  1.00  0.00    -0.071 A 
ATOM     26  C   UNL A   1      -9.975  -8.756  61.710  1.00  0.00    +0.026 A 
ATOM     27  C   UNL A   1      -9.806  -7.480  62.255  1.00  0.00    +0.078 A 
BRANCH  22  28
ATOM     28  O   UNL A   1     -10.584  -5.283  62.607  1.00  0.00    -0.565 OA
ATOM     29  H   UNL A   1     -11.314  -4.705  62.333  1.00  0.00    +0.334 HD
ENDBRANCH  22  28
ENDBRANCH  21  25
ENDBRANCH  20  21
ENDBRANCH   1  20
TORSDOF 5
ENDMDL
MODEL 13
REMARK VINA RESULT:    -8.012      2.977      4.376
REMARK INTER + INTRA:         -10.651
REMARK INTER:                 -10.278
REMARK INTRA:                  -0.374
REMARK UNBOUND:                -0.532
REMARK  Name = ZM-241385
REMARK  5 active torsions:
REMARK  status: ('A' for Active; 'I' for Inactive)
REMARK    1  A    between atoms: O_1  and  C_2
REMARK    2  A    between atoms: C_5  and  C_6
REMARK    3  A    between atoms: C_6  and  C_7
REMARK    4  A    between atoms: C_7  and  N_8
REMARK    5  A    between atoms: C_13  and  C_14
REMARK                            x       y       z     vdW  Elec       q    Type
REMARK                         _______ _______ _______ _____ _____    ______ ____
ROOT
ATOM      1  N   UNL A   1     -10.472 -10.793  56.275  1.00  0.00    -0.363 N 
ATOM      2  C   UNL A   1     -10.636 -10.335  57.554  1.00  0.00    +0.177 A 
ATOM      3  N   UNL A   1      -9.716 -10.531  58.462  1.00  0.00    -0.177 NA
ATOM      4  C   UNL A   1      -9.982 -10.087  59.714  1.00  0.00    +0.233 A 
ATOM      5  N   UNL A   1      -9.288 -10.106  60.833  1.00  0.00    -0.175 NA
ATOM      6  C   UNL A   1     -10.165  -9.591  61.771  1.00  0.00    +0.209 A 
ATOM      7  N   UNL A   1     -11.363  -9.233  61.283  1.00  0.00    -0.163 NA
ATOM      8  N   UNL A   1     -11.182  -9.508  59.982  1.00  0.00    -0.169 N 
ATOM      9  C   UNL A   1     -12.119  -9.284  58.982  1.00  0.00    +0.179 A 
ATOM     10  N   UNL A   1     -13.289  -8.651  59.306  1.00  0.00    -0.360 N 
ATOM     11  N   UNL A   1     -11.842  -9.698  57.783  1.00  0.00    -0.193 NA
ATOM     12  H   UNL A   1     -11.318 -10.696  55.724  1.00  0.00    +0.200 HD
ATOM     13  H   UNL A   1     -13.530  -8.634  60.296  1.00  0.00    +0.193 HD
ATOM     14  H   UNL A   1     -14.061  -8.772  58.663  1.00  0.00    +0.193 HD
ENDROOT
BRANCH   6  15
ATOM     15  C   UNL A   1      -9.833  -9.459  63.221  1.00  0.00    +0.134 A 
ATOM     16  C   UNL A   1      -8.818  -8.692  63.764  1.00  0.00    +0.124 A 
ATOM     17  C   UNL A   1      -8.869  -8.881  65.169  1.00  0.00    +0.091 A 
ATOM     18  C   UNL A   1      -9.901  -9.759  65.398  1.00  0.00    +0.208 A 
ATOM     19  O   UNL A   1     -10.504 -10.098  64.231  1.00  0.00    -0.524 OA
ENDBRANCH   6  15
BRANCH   1  20
ATOM     20  C   UNL A   1      -9.675 -11.976  55.992  1.00  0.00    +0.155 C 
BRANCH  20  21
ATOM     21  C   UNL A   1      -8.366 -11.638  55.262  1.00  0.00    +0.089 C 
BRANCH  21  25
ATOM     22  C   UNL A   1      -8.307 -12.416  51.016  1.00  0.00    +0.033 A 
ATOM     23  C   UNL A   1      -7.168 -12.681  51.766  1.00  0.00    +0.078 A 
ATOM     24  C   UNL A   1      -7.170 -12.426  53.141  1.00  0.00    +0.026 A 
ATOM     25  C   UNL A   1      -8.303 -11.891  53.771  1.00  0.00    -0.071 A 
ATOM     26  C   UNL A   1      -9.449 -11.651  52.993  1.00  0.00    +0.026 A 
ATOM     27  C   UNL A   1      -9.448 -11.906  51.618  1.00  0.00    +0.078 A 
BRANCH  22  28
ATOM     28  O   UNL A   1      -8.343 -12.648  49.673  1.00  0.00    -0.565 OA
ATOM     29  H   UNL A   1      -8.954 -12.011  49.269  1.00  0.00    +0.334 HD
ENDBRANCH  22  28
ENDBRANCH  21  25
ENDBRANCH  20  21
ENDBRANCH   1  20
TORSDOF 5
ENDMDL
MODEL 14
REMARK VINA RESULT:    -7.974      3.297      4.676
REMARK INTER + INTRA:         -10.603
REMARK INTER:                 -10.238
REMARK INTRA:                  -0.365
REMARK UNBOUND:                -0.532
REMARK  Name = ZM-241385
REMARK  5 active torsions:
REMARK  status: ('A' for Active; 'I' for Inactive)
REMARK    1  A    between atoms: O_1  and  C_2
REMARK    2  A    between atoms: C_5  and  C_6
REMARK    3  A    between atoms: C_6  and  C_7
REMARK    4  A    between atoms: C_7  and  N_8
REMARK    5  A    between atoms: C_13  and  C_14
REMARK                            x       y       z     vdW  Elec       q    Type
REMARK                         _______ _______ _______ _____ _____    ______ ____
ROOT
ATOM      1  N   UNL A   1      -9.815 -11.919  55.578  1.00  0.00    -0.363 N 
ATOM      2  C   UNL A   1      -9.903 -11.520  56.884  1.00  0.00    +0.177 A 
ATOM      3  N   UNL A   1      -9.650 -10.285  57.229  1.00  0.00    -0.177 NA
ATOM      4  C   UNL A   1      -9.715  -9.990  58.550  1.00  0.00    +0.233 A 
ATOM      5  N   UNL A   1      -9.538  -8.872  59.224  1.00  0.00    -0.175 NA
ATOM      6  C   UNL A   1      -9.642  -9.266  60.546  1.00  0.00    +0.209 A 
ATOM      7  N   UNL A   1      -9.898 -10.572  60.725  1.00  0.00    -0.163 NA
ATOM      8  N   UNL A   1      -9.991 -10.973  59.447  1.00  0.00    -0.169 N 
ATOM      9  C   UNL A   1     -10.291 -12.265  59.038  1.00  0.00    +0.179 A 
ATOM     10  N   UNL A   1     -10.611 -13.199  59.986  1.00  0.00    -0.360 N 
ATOM     11  N   UNL A   1     -10.245 -12.529  57.767  1.00  0.00    -0.193 NA
ATOM     12  H   UNL A   1      -9.898 -12.924  55.479  1.00  0.00    +0.200 HD
ATOM     13  H   UNL A   1     -10.339 -12.977  60.943  1.00  0.00    +0.193 HD
ATOM     14  H   UNL A   1     -10.523 -14.169  59.713  1.00  0.00    +0.193 HD
ENDROOT
BRANCH   6  15
ATOM     15  C   UNL A   1      -9.464  -8.333  61.698  1.00  0.00    +0.134 A 
ATOM     16  C   UNL A   1      -8.641  -8.528  62.792  1.00  0.00    +0.124 A 
ATOM     17  C   UNL A   1      -8.801  -7.397  63.632  1.00  0.00    +0.091 A 
ATOM     18  C   UNL A   1      -9.720  -6.587  63.009  1.00  0.00    +0.208 A 
ATOM     19  O   UNL A   1     -10.111  -7.132  61.830  1.00  0.00    -0.524 OA
ENDBRANCH   6  15
BRANCH   1  20
ATOM     20  C   UNL A   1      -8.896 -11.274  54.652  1.00  0.00    +0.155 C 
BRANCH  20  21
ATOM     21  C   UNL A   1      -9.420 -11.284  53.207  1.00  0.00    +0.089 C 
BRANCH  21  25
ATOM     22  C   UNL A   1      -7.377  -8.749  50.372  1.00  0.00    +0.033 A 
ATOM     23  C   UNL A   1      -8.247  -9.725  49.901  1.00  0.00    +0.078 A 
ATOM     24  C   UNL A   1      -8.909 -10.558  50.807  1.00  0.00    +0.026 A 
ATOM     25  C   UNL A   1      -8.695 -10.433  52.187  1.00  0.00    -0.071 A 
ATOM     26  C   UNL A   1      -7.826  -9.425  52.639  1.00  0.00    +0.026 A 
ATOM     27  C   UNL A   1      -7.164  -8.591  51.734  1.00  0.00    +0.078 A 
BRANCH  22  28
ATOM     28  O   UNL A   1      -6.711  -7.919  49.520  1.00  0.00    -0.565 OA
ATOM     29  H   UNL A   1      -6.686  -7.032  49.915  1.00  0.00    +0.334 HD
ENDBRANCH  22  28
ENDBRANCH  21  25
ENDBRANCH  20  21
ENDBRANCH   1  20
TORSDOF 5
ENDMDL
MODEL 15
REMARK VINA RESULT:    -7.940      2.825      4.393
REMARK INTER + INTRA:         -10.561
REMARK INTER:                 -10.451
REMARK INTRA:                  -0.110
REMARK UNBOUND:                -0.532
REMARK  Name = ZM-241385
REMARK  5 active torsions:
REMARK  status: ('A' for Active; 'I' for Inactive)
REMARK    1  A    between atoms: O_1  and  C_2
REMARK    2  A    between atoms: C_5  and  C_6
REMARK    3  A    between atoms: C_6  and  C_7
REMARK    4  A    between atoms: C_7  and  N_8
REMARK    5  A    between atoms: C_13  and  C_14
REMARK                            x       y       z     vdW  Elec       q    Type
REMARK                         _______ _______ _______ _____ _____    ______ ____
ROOT
ATOM      1  N   UNL A   1     -10.002  -8.892  56.223  1.00  0.00    -0.363 N 
ATOM      2  C   UNL A   1     -10.482  -8.705  57.491  1.00  0.00    +0.177 A 
ATOM      3  N   UNL A   1     -10.610  -7.504  57.991  1.00  0.00    -0.177 NA
ATOM      4  C   UNL A   1     -11.047  -7.413  59.270  1.00  0.00    +0.233 A 
ATOM      5  N   UNL A   1     -11.296  -6.386  60.057  1.00  0.00    -0.175 NA
ATOM      6  C   UNL A   1     -11.611  -6.972  61.270  1.00  0.00    +0.209 A 
ATOM      7  N   UNL A   1     -11.592  -8.315  61.268  1.00  0.00    -0.163 NA
ATOM      8  N   UNL A   1     -11.289  -8.546  59.981  1.00  0.00    -0.169 N 
ATOM      9  C   UNL A   1     -11.178  -9.802  59.402  1.00  0.00    +0.179 A 
ATOM     10  N   UNL A   1     -11.484 -10.905  60.155  1.00  0.00    -0.360 N 
ATOM     11  N   UNL A   1     -10.777  -9.873  58.168  1.00  0.00    -0.193 NA
ATOM     12  H   UNL A   1      -9.825  -9.870  56.023  1.00  0.00    +0.200 HD
ATOM     13  H   UNL A   1     -11.502 -10.766  61.165  1.00  0.00    +0.193 HD
ATOM     14  H   UNL A   1     -11.113 -11.789  59.834  1.00  0.00    +0.193 HD
ENDROOT
BRANCH   6  15
ATOM     15  C   UNL A   1     -11.928  -6.191  62.503  1.00  0.00    +0.134 A 
ATOM     16  C   UNL A   1     -11.014  -5.609  63.362  1.00  0.00    +0.124 A 
ATOM     17  C   UNL A   1     -11.762  -4.987  64.394  1.00  0.00    +0.091 A 
ATOM     18  C   UNL A   1     -13.083  -5.235  64.110  1.00  0.00    +0.208 A 
ATOM     19  O   UNL A   1     -13.196  -5.943  62.958  1.00  0.00    -0.524 OA
ENDBRANCH   6  15
BRANCH   1  20
ATOM     20  C   UNL A   1      -9.068  -7.952  55.622  1.00  0.00    +0.155 C 
BRANCH  20  21
ATOM     21  C   UNL A   1      -9.056  -8.041  54.088  1.00  0.00    +0.089 C 
BRANCH  21  25
ATOM     22  C   UNL A   1      -6.930 -11.397  52.399  1.00  0.00    +0.033 A 
ATOM     23  C   UNL A   1      -6.796 -10.146  51.807  1.00  0.00    +0.078 A 
ATOM     24  C   UNL A   1      -7.486  -9.053  52.339  1.00  0.00    +0.026 A 
ATOM     25  C   UNL A   1      -8.323  -9.203  53.453  1.00  0.00    -0.071 A 
ATOM     26  C   UNL A   1      -8.425 -10.474  54.045  1.00  0.00    +0.026 A 
ATOM     27  C   UNL A   1      -7.736 -11.569  53.515  1.00  0.00    +0.078 A 
BRANCH  22  28
ATOM     28  O   UNL A   1      -6.277 -12.489  51.908  1.00  0.00    -0.565 OA
ATOM     29  H   UNL A   1      -6.925 -13.060  51.466  1.00  0.00    +0.334 HD
ENDBRANCH  22  28
ENDBRANCH  21  25
ENDBRANCH  20  21
ENDBRANCH   1  20
TORSDOF 5
ENDMDL
MODEL 16
REMARK VINA RESULT:    -7.847      2.306      4.004
REMARK INTER + INTRA:         -10.444
REMARK INTER:                 -10.127
REMARK INTRA:                  -0.317
REMARK UNBOUND:                -0.532
REMARK  Name = ZM-241385
REMARK  5 active torsions:
REMARK  status: ('A' for Active; 'I' for Inactive)
REMARK    1  A    between atoms: O_1  and  C_2
REMARK    2  A    between atoms: C_5  and  C_6
REMARK    3  A    between atoms: C_6  and  C_7
REMARK    4  A    between atoms: C_7  and  N_8
REMARK    5  A    between atoms: C_13  and  C_14
REMARK                            x       y       z     vdW  Elec       q    Type
REMARK                         _______ _______ _______ _____ _____    ______ ____
ROOT
ATOM      1  N   UNL A   1      -9.615  -9.446  55.228  1.00  0.00    -0.363 N 
ATOM      2  C   UNL A   1      -9.744  -9.744  56.558  1.00  0.00    +0.177 A 
ATOM      3  N   UNL A   1      -9.547  -8.833  57.474  1.00  0.00    -0.177 NA
ATOM      4  C   UNL A   1      -9.647  -9.228  58.766  1.00  0.00    +0.233 A 
ATOM      5  N   UNL A   1      -9.527  -8.581  59.908  1.00  0.00    -0.175 NA
ATOM      6  C   UNL A   1      -9.640  -9.577  60.861  1.00  0.00    +0.209 A 
ATOM      7  N   UNL A   1      -9.846 -10.808  60.367  1.00  0.00    -0.163 NA
ATOM      8  N   UNL A   1      -9.900 -10.531  59.055  1.00  0.00    -0.169 N 
ATOM      9  C   UNL A   1     -10.141 -11.461  58.053  1.00  0.00    +0.179 A 
ATOM     10  N   UNL A   1     -10.440 -12.750  58.409  1.00  0.00    -0.360 N 
ATOM     11  N   UNL A   1     -10.060 -11.065  56.819  1.00  0.00    -0.193 NA
ATOM     12  H   UNL A   1      -9.657 -10.275  54.646  1.00  0.00    +0.200 HD
ATOM     13  H   UNL A   1     -10.194 -13.020  59.361  1.00  0.00    +0.193 HD
ATOM     14  H   UNL A   1     -10.308 -13.457  57.698  1.00  0.00    +0.193 HD
ENDROOT
BRANCH   6  15
ATOM     15  C   UNL A   1      -9.520  -9.327  62.329  1.00  0.00    +0.134 A 
ATOM     16  C   UNL A   1     -10.385  -9.775  63.311  1.00  0.00    +0.124 A 
ATOM     17  C   UNL A   1      -9.887  -9.291  64.547  1.00  0.00    +0.091 A 
ATOM     18  C   UNL A   1      -8.758  -8.568  64.246  1.00  0.00    +0.208 A 
ATOM     19  O   UNL A   1      -8.514  -8.602  62.912  1.00  0.00    -0.524 OA
ENDBRANCH   6  15
BRANCH   1  20
ATOM     20  C   UNL A   1      -8.707  -8.406  54.772  1.00  0.00    +0.155 C 
BRANCH  20  21
ATOM     21  C   UNL A   1      -8.807  -8.166  53.257  1.00  0.00    +0.089 C 
BRANCH  21  25
ATOM     22  C   UNL A   1      -8.349 -11.553  50.620  1.00  0.00    +0.033 A 
ATOM     23  C   UNL A   1      -7.619 -11.515  51.803  1.00  0.00    +0.078 A 
ATOM     24  C   UNL A   1      -7.752 -10.420  52.661  1.00  0.00    +0.026 A 
ATOM     25  C   UNL A   1      -8.600  -9.352  52.339  1.00  0.00    -0.071 A 
ATOM     26  C   UNL A   1      -9.342  -9.424  51.147  1.00  0.00    +0.026 A 
ATOM     27  C   UNL A   1      -9.210 -10.518  50.287  1.00  0.00    +0.078 A 
BRANCH  22  28
ATOM     28  O   UNL A   1      -8.245 -12.602  49.755  1.00  0.00    -0.565 OA
ATOM     29  H   UNL A   1      -8.561 -12.312  48.884  1.00  0.00    +0.334 HD
ENDBRANCH  22  28
ENDBRANCH  21  25
ENDBRANCH  20  21
ENDBRANCH   1  20
TORSDOF 5
ENDMDL
MODEL 17
REMARK VINA RESULT:    -7.847      2.984      9.015
REMARK INTER + INTRA:         -10.443
REMARK INTER:                 -10.082
REMARK INTRA:                  -0.360
REMARK UNBOUND:                -0.532
REMARK  Name = ZM-241385
REMARK  5 active torsions:
REMARK  status: ('A' for Active; 'I' for Inactive)
REMARK    1  A    between atoms: O_1  and  C_2
REMARK    2  A    between atoms: C_5  and  C_6
REMARK    3  A    between atoms: C_6  and  C_7
REMARK    4  A    between atoms: C_7  and  N_8
REMARK    5  A    between atoms: C_13  and  C_14
REMARK                            x       y       z     vdW  Elec       q    Type
REMARK                         _______ _______ _______ _____ _____    ______ ____
ROOT
ATOM      1  N   UNL A   1     -10.805 -11.299  58.546  1.00  0.00    -0.363 N 
ATOM      2  C   UNL A   1     -10.425 -11.338  57.232  1.00  0.00    +0.177 A 
ATOM      3  N   UNL A   1      -9.644 -10.419  56.729  1.00  0.00    -0.177 NA
ATOM      4  C   UNL A   1      -9.359 -10.509  55.408  1.00  0.00    +0.233 A 
ATOM      5  N   UNL A   1      -8.612  -9.778  54.605  1.00  0.00    -0.175 NA
ATOM      6  C   UNL A   1      -8.826 -10.339  53.359  1.00  0.00    +0.209 A 
ATOM      7  N   UNL A   1      -9.652 -11.397  53.352  1.00  0.00    -0.163 NA
ATOM      8  N   UNL A   1      -9.915 -11.501  54.664  1.00  0.00    -0.169 N 
ATOM      9  C   UNL A   1     -10.710 -12.481  55.243  1.00  0.00    +0.179 A 
ATOM     10  N   UNL A   1     -11.201 -13.484  54.450  1.00  0.00    -0.360 N 
ATOM     11  N   UNL A   1     -10.959 -12.393  56.514  1.00  0.00    -0.193 NA
ATOM     12  H   UNL A   1     -11.518 -11.988  58.758  1.00  0.00    +0.200 HD
ATOM     13  H   UNL A   1     -11.194 -13.305  53.446  1.00  0.00    +0.193 HD
ATOM     14  H   UNL A   1     -12.000 -13.991  54.806  1.00  0.00    +0.193 HD
ENDROOT
BRANCH   6  15
ATOM     15  C   UNL A   1      -8.214  -9.810  52.103  1.00  0.00    +0.134 A 
ATOM     16  C   UNL A   1      -8.575 -10.143  50.811  1.00  0.00    +0.124 A 
ATOM     17  C   UNL A   1      -7.722  -9.412  49.945  1.00  0.00    +0.091 A 
ATOM     18  C   UNL A   1      -6.885  -8.688  50.759  1.00  0.00    +0.208 A 
ATOM     19  O   UNL A   1      -7.188  -8.903  52.064  1.00  0.00    -0.524 OA
ENDBRANCH   6  15
BRANCH   1  20
ATOM     20  C   UNL A   1     -10.922 -10.038  59.261  1.00  0.00    +0.155 C 
BRANCH  20  21
ATOM     21  C   UNL A   1     -11.444 -10.225  60.694  1.00  0.00    +0.089 C 
BRANCH  21  25
ATOM     22  C   UNL A   1      -9.028  -8.889  64.013  1.00  0.00    +0.033 A 
ATOM     23  C   UNL A   1      -8.656  -8.533  62.722  1.00  0.00    +0.078 A 
ATOM     24  C   UNL A   1      -9.425  -8.966  61.637  1.00  0.00    +0.026 A 
ATOM     25  C   UNL A   1     -10.558  -9.768  61.833  1.00  0.00    -0.071 A 
ATOM     26  C   UNL A   1     -10.924 -10.096  63.151  1.00  0.00    +0.026 A 
ATOM     27  C   UNL A   1     -10.156  -9.664  64.236  1.00  0.00    +0.078 A 
BRANCH  22  28
ATOM     28  O   UNL A   1      -8.302  -8.489  65.096  1.00  0.00    -0.565 OA
ATOM     29  H   UNL A   1      -8.875  -8.530  65.879  1.00  0.00    +0.334 HD
ENDBRANCH  22  28
ENDBRANCH  21  25
ENDBRANCH  20  21
ENDBRANCH   1  20
TORSDOF 5
ENDMDL
MODEL 18
REMARK VINA RESULT:    -7.800      3.121      5.175
REMARK INTER + INTRA:         -10.384
REMARK INTER:                 -10.016
REMARK INTRA:                  -0.368
REMARK UNBOUND:                -0.532
REMARK  Name = ZM-241385
REMARK  5 active torsions:
REMARK  status: ('A' for Active; 'I' for Inactive)
REMARK    1  A    between atoms: O_1  and  C_2
REMARK    2  A    between atoms: C_5  and  C_6
REMARK    3  A    between atoms: C_6  and  C_7
REMARK    4  A    between atoms: C_7  and  N_8
REMARK    5  A    between atoms: C_13  and  C_14
REMARK                            x       y       z     vdW  Elec       q    Type
REMARK                         _______ _______ _______ _____ _____    ______ ____
ROOT
ATOM      1  N   UNL A   1     -10.156  -6.853  57.807  1.00  0.00    -0.363 N 
ATOM      2  C   UNL A   1     -10.573  -7.524  58.925  1.00  0.00    +0.177 A 
ATOM      3  N   UNL A   1     -10.478  -8.826  59.002  1.00  0.00    -0.177 NA
ATOM      4  C   UNL A   1     -10.961  -9.411  60.125  1.00  0.00    +0.233 A 
ATOM      5  N   UNL A   1     -11.009 -10.665  60.526  1.00  0.00    -0.175 NA
ATOM      6  C   UNL A   1     -11.718 -10.603  61.712  1.00  0.00    +0.209 A 
ATOM      7  N   UNL A   1     -12.093  -9.367  62.078  1.00  0.00    -0.163 NA
ATOM      8  N   UNL A   1     -11.548  -8.649  61.084  1.00  0.00    -0.169 N 
ATOM      9  C   UNL A   1     -11.595  -7.265  60.982  1.00  0.00    +0.179 A 
ATOM     10  N   UNL A   1     -12.155  -6.547  62.004  1.00  0.00    -0.360 N 
ATOM     11  N   UNL A   1     -11.112  -6.715  59.909  1.00  0.00    -0.193 NA
ATOM     12  H   UNL A   1     -10.419  -5.874  57.830  1.00  0.00    +0.200 HD
ATOM     13  H   UNL A   1     -12.753  -7.071  62.644  1.00  0.00    +0.193 HD
ATOM     14  H   UNL A   1     -12.455  -5.607  61.786  1.00  0.00    +0.193 HD
ENDROOT
BRANCH   6  15
ATOM     15  C   UNL A   1     -12.071 -11.806  62.523  1.00  0.00    +0.134 A 
ATOM     16  C   UNL A   1     -12.079 -11.891  63.903  1.00  0.00    +0.124 A 
ATOM     17  C   UNL A   1     -12.461 -13.217  64.230  1.00  0.00    +0.091 A 
ATOM     18  C   UNL A   1     -12.651 -13.864  63.033  1.00  0.00    +0.208 A 
ATOM     19  O   UNL A   1     -12.440 -13.015  61.995  1.00  0.00    -0.524 OA
ENDBRANCH   6  15
BRANCH   1  20
ATOM     20  C   UNL A   1     -10.188  -7.478  56.494  1.00  0.00    +0.155 C 
BRANCH  20  21
ATOM     21  C   UNL A   1      -9.219  -6.811  55.505  1.00  0.00    +0.089 C 
BRANCH  21  25
ATOM     22  C   UNL A   1      -7.640  -9.290  52.343  1.00  0.00    +0.033 A 
ATOM     23  C   UNL A   1      -7.521  -7.909  52.242  1.00  0.00    +0.078 A 
ATOM     24  C   UNL A   1      -8.035  -7.094  53.254  1.00  0.00    +0.026 A 
ATOM     25  C   UNL A   1      -8.684  -7.651  54.366  1.00  0.00    -0.071 A 
ATOM     26  C   UNL A   1      -8.773  -9.051  54.454  1.00  0.00    +0.026 A 
ATOM     27  C   UNL A   1      -8.259  -9.867  53.442  1.00  0.00    +0.078 A 
BRANCH  22  28
ATOM     28  O   UNL A   1      -7.153 -10.118  51.375  1.00  0.00    -0.565 OA
ATOM     29  H   UNL A   1      -6.308  -9.758  51.063  1.00  0.00    +0.334 HD
ENDBRANCH  22  28
ENDBRANCH  21  25
ENDBRANCH  20  21
ENDBRANCH   1  20
TORSDOF 5
ENDMDL
