REMARK  Name = ZM-241385
REMARK  5 active torsions:
REMARK  status: ('A' for Active; 'I' for Inactive)
REMARK    1  A    between atoms: O_1  and  C_2
REMARK    2  A    between atoms: C_5  and  C_6
REMARK    3  A    between atoms: C_6  and  C_7
REMARK    4  A    between atoms: C_7  and  N_8
REMARK    5  A    between atoms: C_13  and  C_14
REMARK                            x       y       z     vdW  Elec       q    Type
REMARK                         _______ _______ _______ _____ _____    ______ ____
ROOT
ATOM      1  N   UNL A   1      -8.233  -5.631  55.144  1.00  0.00    -0.363 N 
ATOM      2  C   UNL A   1      -8.917  -6.816  55.112  1.00  0.00    +0.177 A 
ATOM      3  N   UNL A   1      -8.455  -7.876  55.722  1.00  0.00    -0.177 NA
ATOM      4  C   UNL A   1      -9.172  -9.019  55.597  1.00  0.00    +0.233 A 
ATOM      5  N   UNL A   1      -9.006 -10.233  56.081  1.00  0.00    -0.175 NA
ATOM      6  C   UNL A   1     -10.026 -10.961  55.495  1.00  0.00    +0.209 A 
ATOM      7  N   UNL A   1     -10.831 -10.252  54.688  1.00  0.00    -0.163 NA
ATOM      8  N   UNL A   1     -10.292  -9.031  54.828  1.00  0.00    -0.169 N 
ATOM      9  C   UNL A   1     -10.771  -7.875  54.227  1.00  0.00    +0.179 A 
ATOM     10  N   UNL A   1     -11.933  -7.940  53.505  1.00  0.00    -0.360 N 
ATOM     11  N   UNL A   1     -10.084  -6.782  54.371  1.00  0.00    -0.193 NA
ATOM     12  H   UNL A   1      -8.633  -4.943  54.516  1.00  0.00    +0.200 HD
ATOM     13  H   UNL A   1     -12.227  -8.872  53.214  1.00  0.00    +0.193 HD
ATOM     14  H   UNL A   1     -12.095  -7.195  52.841  1.00  0.00    +0.193 HD
ENDROOT
BRANCH   6  15
ATOM     15  C   UNL A   1     -10.219 -12.426  55.711  1.00  0.00    +0.134 A 
ATOM     16  C   UNL A   1      -9.570 -13.210  56.647  1.00  0.00    +0.124 A 
ATOM     17  C   UNL A   1     -10.056 -14.532  56.482  1.00  0.00    +0.091 A 
ATOM     18  C   UNL A   1     -10.961 -14.479  55.450  1.00  0.00    +0.208 A 
ATOM     19  O   UNL A   1     -11.084 -13.208  54.991  1.00  0.00    -0.524 OA
ENDBRANCH   6  15
BRANCH   1  20
ATOM     20  C   UNL A   1      -6.784  -5.598  55.266  1.00  0.00    +0.155 C 
BRANCH  20  21
ATOM     21  C   UNL A   1      -6.232  -4.164  55.289  1.00  0.00    +0.089 C 
BRANCH  21  25
ATOM     22  C   UNL A   1      -7.296  -1.528  58.538  1.00  0.00    +0.033 A 
ATOM     23  C   UNL A   1      -7.320  -2.902  58.748  1.00  0.00    +0.078 A 
ATOM     24  C   UNL A   1      -6.986  -3.767  57.702  1.00  0.00    +0.026 A 
ATOM     25  C   UNL A   1      -6.641  -3.268  56.438  1.00  0.00    -0.071 A 
ATOM     26  C   UNL A   1      -6.604  -1.874  56.258  1.00  0.00    +0.026 A 
ATOM     27  C   UNL A   1      -6.938  -1.008  57.303  1.00  0.00    +0.078 A 
BRANCH  22  28
ATOM     28  O   UNL A   1      -7.618  -0.652  59.532  1.00  0.00    -0.565 OA
ATOM     29  H   UNL A   1      -7.866  -1.162  60.320  1.00  0.00    +0.334 HD
ENDBRANCH  22  28
ENDBRANCH  21  25
ENDBRANCH  20  21
ENDBRANCH   1  20
TORSDOF 5
