REMARK  Name = Caffeine
REMARK  3 active torsions:
REMARK  status: ('A' for Active; 'I' for Inactive)
REMARK    1  A    between atoms: C_1  and  N_2
REMARK    2  A    between atoms: N_9  and  C_14
REMARK    3  A    between atoms: N_12  and  C_13
REMARK                            x       y       z     vdW  Elec       q    Type
REMARK                         _______ _______ _______ _____ _____    ______ ____
ROOT
ATOM      1  C   UNL A   1     -12.264  -8.295  55.888  1.00  0.00    +0.199 C 
ATOM      2  N   UNL A   1     -11.283  -7.240  55.861  1.00  0.00    -0.304 N 
ATOM      3  C   UNL A   1     -11.540  -5.894  55.850  1.00  0.00    +0.207 A 
ATOM      4  N   UNL A   1     -10.426  -5.188  55.847  1.00  0.00    -0.231 NA
ATOM      5  C   UNL A   1      -9.432  -6.120  55.853  1.00  0.00    +0.130 A 
ATOM      6  C   UNL A   1      -9.926  -7.389  55.856  1.00  0.00    +0.153 A 
ATOM      7  C   UNL A   1      -9.103  -8.546  55.862  1.00  0.00    +0.244 A 
ATOM      8  O   UNL A   1      -9.560  -9.686  55.863  1.00  0.00    -0.348 OA
ATOM      9  N   UNL A   1      -7.740  -8.240  55.865  1.00  0.00    -0.208 N 
ATOM     10  C   UNL A   1      -7.188  -6.942  55.863  1.00  0.00    +0.252 A 
ATOM     11  O   UNL A   1      -5.965  -6.773  55.864  1.00  0.00    -0.328 OA
ATOM     12  N   UNL A   1      -8.081  -5.869  55.859  1.00  0.00    -0.240 N 
ATOM     13  C   UNL A   1      -7.591  -4.503  55.865  1.00  0.00    +0.230 C 
ATOM     14  C   UNL A   1      -6.794  -9.338  55.877  1.00  0.00    +0.243 C 
ENDROOT
TORSDOF 0
