MODEL 1
REMARK VINA RESULT:    -5.545      0.000      0.000
REMARK INTER + INTRA:          -5.545
REMARK INTER:                  -5.545
REMARK INTRA:                   0.000
REMARK UNBOUND:                 0.000
REMARK  Name = Caffeine
REMARK  3 active torsions:
REMARK  status: ('A' for Active; 'I' for Inactive)
REMARK    1  A    between atoms: C_1  and  N_2
REMARK    2  A    between atoms: N_9  and  C_14
REMARK    3  A    between atoms: N_12  and  C_13
REMARK                            x       y       z     vdW  Elec       q    Type
REMARK                         _______ _______ _______ _____ _____    ______ ____
ROOT
ATOM      1  C   UNL A   1      -6.900  -7.473  51.160  1.00  0.00    +0.199 C 
ATOM      2  N   UNL A   1      -7.547  -7.625  52.438  1.00  0.00    -0.304 N 
ATOM      3  C   UNL A   1      -7.930  -6.612  53.278  1.00  0.00    +0.207 A 
ATOM      4  N   UNL A   1      -8.517  -7.078  54.363  1.00  0.00    -0.231 NA
ATOM      5  C   UNL A   1      -8.501  -8.431  54.205  1.00  0.00    +0.130 A 
ATOM      6  C   UNL A   1      -7.908  -8.798  53.035  1.00  0.00    +0.153 A 
ATOM      7  C   UNL A   1      -7.760 -10.150  52.627  1.00  0.00    +0.244 A 
ATOM      8  O   UNL A   1      -7.221 -10.469  51.570  1.00  0.00    -0.348 OA
ATOM      9  N   UNL A   1      -8.289 -11.055  53.550  1.00  0.00    -0.208 N 
ATOM     10  C   UNL A   1      -8.911 -10.717  54.770  1.00  0.00    +0.252 A 
ATOM     11  O   UNL A   1      -9.347 -11.592  55.524  1.00  0.00    -0.328 OA
ATOM     12  N   UNL A   1      -9.009  -9.360  55.081  1.00  0.00    -0.240 N 
ATOM     13  C   UNL A   1      -9.644  -8.931  56.314  1.00  0.00    +0.230 C 
ATOM     14  C   UNL A   1      -8.205 -12.469  53.245  1.00  0.00    +0.243 C 
ENDROOT
TORSDOF 0
ENDMDL
MODEL 2
REMARK VINA RESULT:    -5.538      1.291      3.334
REMARK INTER + INTRA:          -5.538
REMARK INTER:                  -5.538
REMARK INTRA:                   0.000
REMARK UNBOUND:                 0.000
REMARK  Name = Caffeine
REMARK  3 active torsions:
REMARK  status: ('A' for Active; 'I' for Inactive)
REMARK    1  A    between atoms: C_1  and  N_2
REMARK    2  A    between atoms: N_9  and  C_14
REMARK    3  A    between atoms: N_12  and  C_13
REMARK                            x       y       z     vdW  Elec       q    Type
REMARK                         _______ _______ _______ _____ _____    ______ ____
ROOT
ATOM      1  C   UNL A   1      -9.063  -6.269  55.786  1.00  0.00    +0.199 C 
ATOM      2  N   UNL A   1      -8.453  -6.582  54.519  1.00  0.00    -0.304 N 
ATOM      3  C   UNL A   1      -7.897  -5.686  53.643  1.00  0.00    +0.207 A 
ATOM      4  N   UNL A   1      -7.402  -6.290  52.580  1.00  0.00    -0.231 NA
ATOM      5  C   UNL A   1      -7.658  -7.612  52.790  1.00  0.00    +0.130 A 
ATOM      6  C   UNL A   1      -8.307  -7.823  53.969  1.00  0.00    +0.153 A 
ATOM      7  C   UNL A   1      -8.692  -9.110  54.428  1.00  0.00    +0.244 A 
ATOM      8  O   UNL A   1      -9.278  -9.288  55.492  1.00  0.00    -0.348 OA
ATOM      9  N   UNL A   1      -8.333 -10.129  53.543  1.00  0.00    -0.208 N 
ATOM     10  C   UNL A   1      -7.660  -9.954  52.315  1.00  0.00    +0.252 A 
ATOM     11  O   UNL A   1      -7.387 -10.922  51.598  1.00  0.00    -0.328 OA
ATOM     12  N   UNL A   1      -7.323  -8.649  51.953  1.00  0.00    -0.240 N 
ATOM     13  C   UNL A   1      -6.623  -8.387  50.709  1.00  0.00    +0.230 C 
ATOM     14  C   UNL A   1      -8.666 -11.494  53.902  1.00  0.00    +0.243 C 
ENDROOT
TORSDOF 0
ENDMDL
MODEL 3
REMARK VINA RESULT:    -5.513      1.846      4.706
REMARK INTER + INTRA:          -5.513
REMARK INTER:                  -5.513
REMARK INTRA:                   0.000
REMARK UNBOUND:                 0.000
REMARK  Name = Caffeine
REMARK  3 active torsions:
REMARK  status: ('A' for Active; 'I' for Inactive)
REMARK    1  A    between atoms: C_1  and  N_2
REMARK    2  A    between atoms: N_9  and  C_14
REMARK    3  A    between atoms: N_12  and  C_13
REMARK                            x       y       z     vdW  Elec       q    Type
REMARK                         _______ _______ _______ _____ _____    ______ ____
ROOT
ATOM      1  C   UNL A   1      -9.177 -11.462  54.635  1.00  0.00    +0.199 C 
ATOM      2  N   UNL A   1      -8.470 -10.725  53.618  1.00  0.00    -0.304 N 
ATOM      3  C   UNL A   1      -7.861 -11.253  52.510  1.00  0.00    +0.207 A 
ATOM      4  N   UNL A   1      -7.319 -10.312  51.760  1.00  0.00    -0.231 NA
ATOM      5  C   UNL A   1      -7.593  -9.151  52.420  1.00  0.00    +0.130 A 
ATOM      6  C   UNL A   1      -8.294  -9.372  53.566  1.00  0.00    +0.153 A 
ATOM      7  C   UNL A   1      -8.706  -8.332  54.440  1.00  0.00    +0.244 A 
ATOM      8  O   UNL A   1      -9.337  -8.543  55.473  1.00  0.00    -0.348 OA
ATOM      9  N   UNL A   1      -8.317  -7.066  53.996  1.00  0.00    -0.208 N 
ATOM     10  C   UNL A   1      -7.593  -6.795  52.816  1.00  0.00    +0.252 A 
ATOM     11  O   UNL A   1      -7.293  -5.637  52.508  1.00  0.00    -0.328 OA
ATOM     12  N   UNL A   1      -7.235  -7.886  52.022  1.00  0.00    -0.240 N 
ATOM     13  C   UNL A   1      -6.496  -7.688  50.789  1.00  0.00    +0.230 C 
ATOM     14  C   UNL A   1      -8.684  -5.918  54.800  1.00  0.00    +0.243 C 
ENDROOT
TORSDOF 0
ENDMDL
MODEL 4
REMARK VINA RESULT:    -5.493      1.582      3.657
REMARK INTER + INTRA:          -5.493
REMARK INTER:                  -5.493
REMARK INTRA:                   0.000
REMARK UNBOUND:                 0.000
REMARK  Name = Caffeine
REMARK  3 active torsions:
REMARK  status: ('A' for Active; 'I' for Inactive)
REMARK    1  A    between atoms: C_1  and  N_2
REMARK    2  A    between atoms: N_9  and  C_14
REMARK    3  A    between atoms: N_12  and  C_13
REMARK                            x       y       z     vdW  Elec       q    Type
REMARK                         _______ _______ _______ _____ _____    ______ ____
ROOT
ATOM      1  C   UNL A   1      -8.135 -12.755  52.931  1.00  0.00    +0.199 C 
ATOM      2  N   UNL A   1      -8.484 -11.611  53.734  1.00  0.00    -0.304 N 
ATOM      3  C   UNL A   1      -9.107 -11.637  54.954  1.00  0.00    +0.207 A 
ATOM      4  N   UNL A   1      -9.267 -10.422  55.443  1.00  0.00    -0.231 NA
ATOM      5  C   UNL A   1      -8.729  -9.602  54.497  1.00  0.00    +0.130 A 
ATOM      6  C   UNL A   1      -8.246 -10.301  53.433  1.00  0.00    +0.153 A 
ATOM      7  C   UNL A   1      -7.634  -9.686  52.309  1.00  0.00    +0.244 A 
ATOM      8  O   UNL A   1      -7.202 -10.328  51.355  1.00  0.00    -0.348 OA
ATOM      9  N   UNL A   1      -7.583  -8.294  52.415  1.00  0.00    -0.208 N 
ATOM     10  C   UNL A   1      -8.071  -7.533  53.498  1.00  0.00    +0.252 A 
ATOM     11  O   UNL A   1      -7.981  -6.302  53.498  1.00  0.00    -0.328 OA
ATOM     12  N   UNL A   1      -8.654  -8.231  54.557  1.00  0.00    -0.240 N 
ATOM     13  C   UNL A   1      -9.172  -7.520  55.711  1.00  0.00    +0.230 C 
ATOM     14  C   UNL A   1      -6.975  -7.549  51.331  1.00  0.00    +0.243 C 
ENDROOT
TORSDOF 0
ENDMDL
MODEL 5
REMARK VINA RESULT:    -5.483      1.971      3.410
REMARK INTER + INTRA:          -5.483
REMARK INTER:                  -5.483
REMARK INTRA:                   0.000
REMARK UNBOUND:                 0.000
REMARK  Name = Caffeine
REMARK  3 active torsions:
REMARK  status: ('A' for Active; 'I' for Inactive)
REMARK    1  A    between atoms: C_1  and  N_2
REMARK    2  A    between atoms: N_9  and  C_14
REMARK    3  A    between atoms: N_12  and  C_13
REMARK                            x       y       z     vdW  Elec       q    Type
REMARK                         _______ _______ _______ _____ _____    ______ ____
ROOT
ATOM      1  C   UNL A   1      -6.450  -7.333  50.602  1.00  0.00    +0.199 C 
ATOM      2  N   UNL A   1      -7.042  -8.277  51.516  1.00  0.00    -0.304 N 
ATOM      3  C   UNL A   1      -7.071  -9.639  51.370  1.00  0.00    +0.207 A 
ATOM      4  N   UNL A   1      -7.668 -10.223  52.390  1.00  0.00    -0.231 NA
ATOM      5  C   UNL A   1      -8.031  -9.195  53.207  1.00  0.00    +0.130 A 
ATOM      6  C   UNL A   1      -7.665  -7.987  52.696  1.00  0.00    +0.153 A 
ATOM      7  C   UNL A   1      -7.925  -6.753  53.348  1.00  0.00    +0.244 A 
ATOM      8  O   UNL A   1      -7.592  -5.669  52.876  1.00  0.00    -0.348 OA
ATOM      9  N   UNL A   1      -8.591  -6.915  54.565  1.00  0.00    -0.208 N 
ATOM     10  C   UNL A   1      -8.986  -8.145  55.130  1.00  0.00    +0.252 A 
ATOM     11  O   UNL A   1      -9.575  -8.185  56.215  1.00  0.00    -0.328 OA
ATOM     12  N   UNL A   1      -8.683  -9.303  54.412  1.00  0.00    -0.240 N 
ATOM     13  C   UNL A   1      -9.049 -10.608  54.930  1.00  0.00    +0.230 C 
ATOM     14  C   UNL A   1      -8.909  -5.727  55.332  1.00  0.00    +0.243 C 
ENDROOT
TORSDOF 0
ENDMDL
MODEL 6
REMARK VINA RESULT:    -5.474      1.424      3.090
REMARK INTER + INTRA:          -5.474
REMARK INTER:                  -5.474
REMARK INTRA:                   0.000
REMARK UNBOUND:                 0.000
REMARK  Name = Caffeine
REMARK  3 active torsions:
REMARK  status: ('A' for Active; 'I' for Inactive)
REMARK    1  A    between atoms: C_1  and  N_2
REMARK    2  A    between atoms: N_9  and  C_14
REMARK    3  A    between atoms: N_12  and  C_13
REMARK                            x       y       z     vdW  Elec       q    Type
REMARK                         _______ _______ _______ _____ _____    ______ ____
ROOT
ATOM      1  C   UNL A   1      -8.660  -5.663  54.991  1.00  0.00    +0.199 C 
ATOM      2  N   UNL A   1      -8.291  -6.714  54.078  1.00  0.00    -0.304 N 
ATOM      3  C   UNL A   1      -7.663  -6.556  52.870  1.00  0.00    +0.207 A 
ATOM      4  N   UNL A   1      -7.444  -7.716  52.282  1.00  0.00    -0.231 NA
ATOM      5  C   UNL A   1      -7.953  -8.638  53.147  1.00  0.00    +0.130 A 
ATOM      6  C   UNL A   1      -8.485  -8.054  54.256  1.00  0.00    +0.153 A 
ATOM      7  C   UNL A   1      -9.082  -8.789  55.314  1.00  0.00    +0.244 A 
ATOM      8  O   UNL A   1      -9.560  -8.251  56.309  1.00  0.00    -0.348 OA
ATOM      9  N   UNL A   1      -9.062 -10.168  55.093  1.00  0.00    -0.208 N 
ATOM     10  C   UNL A   1      -8.521 -10.812  53.961  1.00  0.00    +0.252 A 
ATOM     11  O   UNL A   1      -8.553 -12.042  53.855  1.00  0.00    -0.328 OA
ATOM     12  N   UNL A   1      -7.955 -10.001  52.976  1.00  0.00    -0.240 N 
ATOM     13  C   UNL A   1      -7.370 -10.589  51.785  1.00  0.00    +0.230 C 
ATOM     14  C   UNL A   1      -9.638 -11.030  56.106  1.00  0.00    +0.243 C 
ENDROOT
TORSDOF 0
ENDMDL
MODEL 7
REMARK VINA RESULT:    -5.410      1.669      3.103
REMARK INTER + INTRA:          -5.410
REMARK INTER:                  -5.410
REMARK INTRA:                   0.000
REMARK UNBOUND:                 0.000
REMARK  Name = Caffeine
REMARK  3 active torsions:
REMARK  status: ('A' for Active; 'I' for Inactive)
REMARK    1  A    between atoms: C_1  and  N_2
REMARK    2  A    between atoms: N_9  and  C_14
REMARK    3  A    between atoms: N_12  and  C_13
REMARK                            x       y       z     vdW  Elec       q    Type
REMARK                         _______ _______ _______ _____ _____    ______ ____
ROOT
ATOM      1  C   UNL A   1      -7.882  -6.322  53.294  1.00  0.00    +0.199 C 
ATOM      2  N   UNL A   1      -7.948  -7.753  53.147  1.00  0.00    -0.304 N 
ATOM      3  C   UNL A   1      -7.488  -8.481  52.080  1.00  0.00    +0.207 A 
ATOM      4  N   UNL A   1      -7.677  -9.774  52.258  1.00  0.00    -0.231 NA
ATOM      5  C   UNL A   1      -8.280  -9.866  53.476  1.00  0.00    +0.130 A 
ATOM      6  C   UNL A   1      -8.464  -8.642  54.045  1.00  0.00    +0.153 A 
ATOM      7  C   UNL A   1      -9.071  -8.456  55.315  1.00  0.00    +0.244 A 
ATOM      8  O   UNL A   1      -9.234  -7.347  55.817  1.00  0.00    -0.348 OA
ATOM      9  N   UNL A   1      -9.454  -9.659  55.912  1.00  0.00    -0.208 N 
ATOM     10  C   UNL A   1      -9.281 -10.945  55.359  1.00  0.00    +0.252 A 
ATOM     11  O   UNL A   1      -9.656 -11.953  55.966  1.00  0.00    -0.328 OA
ATOM     12  N   UNL A   1      -8.671 -11.023  54.105  1.00  0.00    -0.240 N 
ATOM     13  C   UNL A   1      -8.450 -12.310  53.473  1.00  0.00    +0.230 C 
ATOM     14  C   UNL A   1     -10.082  -9.604  57.218  1.00  0.00    +0.243 C 
ENDROOT
TORSDOF 0
ENDMDL
MODEL 8
REMARK VINA RESULT:    -5.395      2.410      4.932
REMARK INTER + INTRA:          -5.395
REMARK INTER:                  -5.395
REMARK INTRA:                   0.000
REMARK UNBOUND:                 0.000
REMARK  Name = Caffeine
REMARK  3 active torsions:
REMARK  status: ('A' for Active; 'I' for Inactive)
REMARK    1  A    between atoms: C_1  and  N_2
REMARK    2  A    between atoms: N_9  and  C_14
REMARK    3  A    between atoms: N_12  and  C_13
REMARK                            x       y       z     vdW  Elec       q    Type
REMARK                         _______ _______ _______ _____ _____    ______ ____
ROOT
ATOM      1  C   UNL A   1      -6.769 -14.405  52.848  1.00  0.00    +0.199 C 
ATOM      2  N   UNL A   1      -7.301 -13.433  51.927  1.00  0.00    -0.304 N 
ATOM      3  C   UNL A   1      -7.427 -13.585  50.571  1.00  0.00    +0.207 A 
ATOM      4  N   UNL A   1      -7.971 -12.521  50.013  1.00  0.00    -0.231 NA
ATOM      5  C   UNL A   1      -8.194 -11.668  51.051  1.00  0.00    +0.130 A 
ATOM      6  C   UNL A   1      -7.789 -12.197  52.239  1.00  0.00    +0.153 A 
ATOM      7  C   UNL A   1      -7.908 -11.513  53.478  1.00  0.00    +0.244 A 
ATOM      8  O   UNL A   1      -7.537 -12.000  54.543  1.00  0.00    -0.348 OA
ATOM      9  N   UNL A   1      -8.483 -10.247  53.344  1.00  0.00    -0.208 N 
ATOM     10  C   UNL A   1      -8.917  -9.664  52.135  1.00  0.00    +0.252 A 
ATOM     11  O   UNL A   1      -9.414  -8.534  52.118  1.00  0.00    -0.328 OA
ATOM     12  N   UNL A   1      -8.758 -10.417  50.970  1.00  0.00    -0.240 N 
ATOM     13  C   UNL A   1      -9.187  -9.890  49.688  1.00  0.00    +0.230 C 
ATOM     14  C   UNL A   1      -8.665  -9.450  54.540  1.00  0.00    +0.243 C 
ENDROOT
TORSDOF 0
ENDMDL
MODEL 9
REMARK VINA RESULT:    -5.394      1.518      3.744
REMARK INTER + INTRA:          -5.394
REMARK INTER:                  -5.394
REMARK INTRA:                   0.000
REMARK UNBOUND:                 0.000
REMARK  Name = Caffeine
REMARK  3 active torsions:
REMARK  status: ('A' for Active; 'I' for Inactive)
REMARK    1  A    between atoms: C_1  and  N_2
REMARK    2  A    between atoms: N_9  and  C_14
REMARK    3  A    between atoms: N_12  and  C_13
REMARK                            x       y       z     vdW  Elec       q    Type
REMARK                         _______ _______ _______ _____ _____    ______ ____
ROOT
ATOM      1  C   UNL A   1      -9.897 -11.730  56.701  1.00  0.00    +0.199 C 
ATOM      2  N   UNL A   1      -9.659 -10.384  56.245  1.00  0.00    -0.304 N 
ATOM      3  C   UNL A   1     -10.011  -9.232  56.899  1.00  0.00    +0.207 A 
ATOM      4  N   UNL A   1      -9.634  -8.160  56.230  1.00  0.00    -0.231 NA
ATOM      5  C   UNL A   1      -9.027  -8.652  55.114  1.00  0.00    +0.130 A 
ATOM      6  C   UNL A   1      -9.031 -10.013  55.091  1.00  0.00    +0.153 A 
ATOM      7  C   UNL A   1      -8.462 -10.778  54.039  1.00  0.00    +0.244 A 
ATOM      8  O   UNL A   1      -8.473 -12.006  54.028  1.00  0.00    -0.348 OA
ATOM      9  N   UNL A   1      -7.900  -9.983  53.036  1.00  0.00    -0.208 N 
ATOM     10  C   UNL A   1      -7.874  -8.573  53.022  1.00  0.00    +0.252 A 
ATOM     11  O   UNL A   1      -7.354  -7.958  52.086  1.00  0.00    -0.328 OA
ATOM     12  N   UNL A   1      -8.459  -7.913  54.104  1.00  0.00    -0.240 N 
ATOM     13  C   UNL A   1      -8.465  -6.463  54.166  1.00  0.00    +0.230 C 
ATOM     14  C   UNL A   1      -7.281 -10.647  51.906  1.00  0.00    +0.243 C 
ENDROOT
TORSDOF 0
ENDMDL
MODEL 10
REMARK VINA RESULT:    -5.393      1.597      3.590
REMARK INTER + INTRA:          -5.393
REMARK INTER:                  -5.393
REMARK INTRA:                   0.000
REMARK UNBOUND:                 0.000
REMARK  Name = Caffeine
REMARK  3 active torsions:
REMARK  status: ('A' for Active; 'I' for Inactive)
REMARK    1  A    between atoms: C_1  and  N_2
REMARK    2  A    between atoms: N_9  and  C_14
REMARK    3  A    between atoms: N_12  and  C_13
REMARK                            x       y       z     vdW  Elec       q    Type
REMARK                         _______ _______ _______ _____ _____    ______ ____
ROOT
ATOM      1  C   UNL A   1      -7.998 -12.384  52.858  1.00  0.00    +0.199 C 
ATOM      2  N   UNL A   1      -7.929 -10.945  52.903  1.00  0.00    -0.304 N 
ATOM      3  C   UNL A   1      -7.368 -10.131  51.954  1.00  0.00    +0.207 A 
ATOM      4  N   UNL A   1      -7.485  -8.858  52.278  1.00  0.00    -0.231 NA
ATOM      5  C   UNL A   1      -8.140  -8.869  53.473  1.00  0.00    +0.130 A 
ATOM      6  C   UNL A   1      -8.421 -10.136  53.886  1.00  0.00    +0.153 A 
ATOM      7  C   UNL A   1      -9.098 -10.428  55.099  1.00  0.00    +0.244 A 
ATOM      8  O   UNL A   1      -9.345 -11.575  55.462  1.00  0.00    -0.348 OA
ATOM      9  N   UNL A   1      -9.440  -9.280  55.818  1.00  0.00    -0.208 N 
ATOM     10  C   UNL A   1      -9.169  -7.953  55.426  1.00  0.00    +0.252 A 
ATOM     11  O   UNL A   1      -9.511  -7.000  56.133  1.00  0.00    -0.328 OA
ATOM     12  N   UNL A   1      -8.500  -7.769  54.214  1.00  0.00    -0.240 N 
ATOM     13  C   UNL A   1      -8.191  -6.434  53.738  1.00  0.00    +0.230 C 
ATOM     14  C   UNL A   1     -10.142  -9.446  57.075  1.00  0.00    +0.243 C 
ENDROOT
TORSDOF 0
ENDMDL
MODEL 11
REMARK VINA RESULT:    -5.392      1.520      3.652
REMARK INTER + INTRA:          -5.392
REMARK INTER:                  -5.392
REMARK INTRA:                   0.000
REMARK UNBOUND:                 0.000
REMARK  Name = Caffeine
REMARK  3 active torsions:
REMARK  status: ('A' for Active; 'I' for Inactive)
REMARK    1  A    between atoms: C_1  and  N_2
REMARK    2  A    between atoms: N_9  and  C_14
REMARK    3  A    between atoms: N_12  and  C_13
REMARK                            x       y       z     vdW  Elec       q    Type
REMARK                         _______ _______ _______ _____ _____    ______ ____
ROOT
ATOM      1  C   UNL A   1      -9.328  -6.753  55.911  1.00  0.00    +0.199 C 
ATOM      2  N   UNL A   1      -9.165  -8.132  55.528  1.00  0.00    -0.304 N 
ATOM      3  C   UNL A   1      -9.580  -9.226  56.241  1.00  0.00    +0.207 A 
ATOM      4  N   UNL A   1      -9.303 -10.350  55.610  1.00  0.00    -0.231 NA
ATOM      5  C   UNL A   1      -8.689  -9.953  54.460  1.00  0.00    +0.130 A 
ATOM      6  C   UNL A   1      -8.585  -8.597  54.383  1.00  0.00    +0.153 A 
ATOM      7  C   UNL A   1      -7.985  -7.922  53.287  1.00  0.00    +0.244 A 
ATOM      8  O   UNL A   1      -7.895  -6.699  53.229  1.00  0.00    -0.348 OA
ATOM      9  N   UNL A   1      -7.518  -8.797  52.303  1.00  0.00    -0.208 N 
ATOM     10  C   UNL A   1      -7.607 -10.204  52.344  1.00  0.00    +0.252 A 
ATOM     11  O   UNL A   1      -7.161 -10.895  51.423  1.00  0.00    -0.328 OA
ATOM     12  N   UNL A   1      -8.216 -10.773  53.464  1.00  0.00    -0.240 N 
ATOM     13  C   UNL A   1      -8.354 -12.213  53.576  1.00  0.00    +0.230 C 
ATOM     14  C   UNL A   1      -6.889  -8.229  51.127  1.00  0.00    +0.243 C 
ENDROOT
TORSDOF 0
ENDMDL
MODEL 12
REMARK VINA RESULT:    -5.388      1.567      2.181
REMARK INTER + INTRA:          -5.388
REMARK INTER:                  -5.388
REMARK INTRA:                   0.000
REMARK UNBOUND:                 0.000
REMARK  Name = Caffeine
REMARK  3 active torsions:
REMARK  status: ('A' for Active; 'I' for Inactive)
REMARK    1  A    between atoms: C_1  and  N_2
REMARK    2  A    between atoms: N_9  and  C_14
REMARK    3  A    between atoms: N_12  and  C_13
REMARK                            x       y       z     vdW  Elec       q    Type
REMARK                         _______ _______ _______ _____ _____    ______ ____
ROOT
ATOM      1  C   UNL A   1      -8.309  -5.888  54.018  1.00  0.00    +0.199 C 
ATOM      2  N   UNL A   1      -8.662  -7.118  54.680  1.00  0.00    -0.304 N 
ATOM      3  C   UNL A   1      -9.272  -7.237  55.901  1.00  0.00    +0.207 A 
ATOM      4  N   UNL A   1      -9.479  -8.500  56.219  1.00  0.00    -0.231 NA
ATOM      5  C   UNL A   1      -8.979  -9.203  55.164  1.00  0.00    +0.130 A 
ATOM      6  C   UNL A   1      -8.466  -8.384  54.205  1.00  0.00    +0.153 A 
ATOM      7  C   UNL A   1      -7.882  -8.861  53.002  1.00  0.00    +0.244 A 
ATOM      8  O   UNL A   1      -7.420  -8.112  52.145  1.00  0.00    -0.348 OA
ATOM      9  N   UNL A   1      -7.894 -10.255  52.912  1.00  0.00    -0.208 N 
ATOM     10  C   UNL A   1      -8.416 -11.138  53.880  1.00  0.00    +0.252 A 
ATOM     11  O   UNL A   1      -8.379 -12.360  53.709  1.00  0.00    -0.328 OA
ATOM     12  N   UNL A   1      -8.971 -10.570  55.028  1.00  0.00    -0.240 N 
ATOM     13  C   UNL A   1      -9.536 -11.412  56.067  1.00  0.00    +0.230 C 
ATOM     14  C   UNL A   1      -7.331 -10.867  51.725  1.00  0.00    +0.243 C 
ENDROOT
TORSDOF 0
ENDMDL
MODEL 13
REMARK VINA RESULT:    -5.367      1.906      4.764
REMARK INTER + INTRA:          -5.367
REMARK INTER:                  -5.367
REMARK INTRA:                   0.000
REMARK UNBOUND:                 0.000
REMARK  Name = Caffeine
REMARK  3 active torsions:
REMARK  status: ('A' for Active; 'I' for Inactive)
REMARK    1  A    between atoms: C_1  and  N_2
REMARK    2  A    between atoms: N_9  and  C_14
REMARK    3  A    between atoms: N_12  and  C_13
REMARK                            x       y       z     vdW  Elec       q    Type
REMARK                         _______ _______ _______ _____ _____    ______ ____
ROOT
ATOM      1  C   UNL A   1     -10.202 -10.074  57.250  1.00  0.00    +0.199 C 
ATOM      2  N   UNL A   1      -9.551 -10.340  55.992  1.00  0.00    -0.304 N 
ATOM      3  C   UNL A   1      -9.344 -11.573  55.432  1.00  0.00    +0.207 A 
ATOM      4  N   UNL A   1      -8.740 -11.478  54.263  1.00  0.00    -0.231 NA
ATOM      5  C   UNL A   1      -8.556 -10.141  54.082  1.00  0.00    +0.130 A 
ATOM      6  C   UNL A   1      -9.039  -9.415  55.128  1.00  0.00    +0.153 A 
ATOM      7  C   UNL A   1      -8.974  -7.998  55.191  1.00  0.00    +0.244 A 
ATOM      8  O   UNL A   1      -9.411  -7.355  56.141  1.00  0.00    -0.348 OA
ATOM      9  N   UNL A   1      -8.364  -7.435  54.067  1.00  0.00    -0.208 N 
ATOM     10  C   UNL A   1      -7.853  -8.149  52.963  1.00  0.00    +0.252 A 
ATOM     11  O   UNL A   1      -7.328  -7.559  52.014  1.00  0.00    -0.328 OA
ATOM     12  N   UNL A   1      -7.967  -9.540  52.995  1.00  0.00    -0.240 N 
ATOM     13  C   UNL A   1      -7.472 -10.345  51.894  1.00  0.00    +0.230 C 
ATOM     14  C   UNL A   1      -8.242  -5.992  54.008  1.00  0.00    +0.243 C 
ENDROOT
TORSDOF 0
ENDMDL
MODEL 14
REMARK VINA RESULT:    -5.348      1.885      3.048
REMARK INTER + INTRA:          -5.348
REMARK INTER:                  -5.348
REMARK INTRA:                   0.000
REMARK UNBOUND:                 0.000
REMARK  Name = Caffeine
REMARK  3 active torsions:
REMARK  status: ('A' for Active; 'I' for Inactive)
REMARK    1  A    between atoms: C_1  and  N_2
REMARK    2  A    between atoms: N_9  and  C_14
REMARK    3  A    between atoms: N_12  and  C_13
REMARK                            x       y       z     vdW  Elec       q    Type
REMARK                         _______ _______ _______ _____ _____    ______ ____
ROOT
ATOM      1  C   UNL A   1      -8.318 -12.302  50.335  1.00  0.00    +0.199 C 
ATOM      2  N   UNL A   1      -8.258 -11.005  50.961  1.00  0.00    -0.304 N 
ATOM      3  C   UNL A   1      -7.948  -9.821  50.344  1.00  0.00    +0.207 A 
ATOM      4  N   UNL A   1      -7.999  -8.808  51.187  1.00  0.00    -0.231 NA
ATOM      5  C   UNL A   1      -8.349  -9.372  52.377  1.00  0.00    +0.130 A 
ATOM      6  C   UNL A   1      -8.510 -10.721  52.272  1.00  0.00    +0.153 A 
ATOM      7  C   UNL A   1      -8.873 -11.550  53.365  1.00  0.00    +0.244 A 
ATOM      8  O   UNL A   1      -9.013 -12.766  53.259  1.00  0.00    -0.348 OA
ATOM      9  N   UNL A   1      -9.048 -10.835  54.552  1.00  0.00    -0.208 N 
ATOM     10  C   UNL A   1      -8.893  -9.441  54.703  1.00  0.00    +0.252 A 
ATOM     11  O   UNL A   1      -9.068  -8.898  55.798  1.00  0.00    -0.328 OA
ATOM     12  N   UNL A   1      -8.535  -8.712  53.567  1.00  0.00    -0.240 N 
ATOM     13  C   UNL A   1      -8.365  -7.273  53.640  1.00  0.00    +0.230 C 
ATOM     14  C   UNL A   1      -9.427 -11.569  55.743  1.00  0.00    +0.243 C 
ENDROOT
TORSDOF 0
ENDMDL
MODEL 15
REMARK VINA RESULT:    -5.347      1.772      3.189
REMARK INTER + INTRA:          -5.347
REMARK INTER:                  -5.347
REMARK INTRA:                   0.000
REMARK UNBOUND:                 0.000
REMARK  Name = Caffeine
REMARK  3 active torsions:
REMARK  status: ('A' for Active; 'I' for Inactive)
REMARK    1  A    between atoms: C_1  and  N_2
REMARK    2  A    between atoms: N_9  and  C_14
REMARK    3  A    between atoms: N_12  and  C_13
REMARK                            x       y       z     vdW  Elec       q    Type
REMARK                         _______ _______ _______ _____ _____    ______ ____
ROOT
ATOM      1  C   UNL A   1      -6.881  -7.778  51.206  1.00  0.00    +0.199 C 
ATOM      2  N   UNL A   1      -7.370  -8.845  52.043  1.00  0.00    -0.304 N 
ATOM      3  C   UNL A   1      -7.270 -10.187  51.786  1.00  0.00    +0.207 A 
ATOM      4  N   UNL A   1      -7.797 -10.906  52.758  1.00  0.00    -0.231 NA
ATOM      5  C   UNL A   1      -8.248  -9.987  53.657  1.00  0.00    +0.130 A 
ATOM      6  C   UNL A   1      -8.006  -8.712  53.244  1.00  0.00    +0.153 A 
ATOM      7  C   UNL A   1      -8.375  -7.565  53.995  1.00  0.00    +0.244 A 
ATOM      8  O   UNL A   1      -8.152  -6.420  53.611  1.00  0.00    -0.348 OA
ATOM      9  N   UNL A   1      -9.009  -7.888  55.197  1.00  0.00    -0.208 N 
ATOM     10  C   UNL A   1      -9.278  -9.192  55.662  1.00  0.00    +0.252 A 
ATOM     11  O   UNL A   1      -9.848  -9.376  56.741  1.00  0.00    -0.328 OA
ATOM     12  N   UNL A   1      -8.874 -10.254  54.851  1.00  0.00    -0.240 N 
ATOM     13  C   UNL A   1      -9.107 -11.626  55.263  1.00  0.00    +0.230 C 
ATOM     14  C   UNL A   1      -9.431  -6.802  56.059  1.00  0.00    +0.243 C 
ENDROOT
TORSDOF 0
ENDMDL
MODEL 16
REMARK VINA RESULT:    -5.343      1.615      2.469
REMARK INTER + INTRA:          -5.343
REMARK INTER:                  -5.343
REMARK INTRA:                   0.000
REMARK UNBOUND:                 0.000
REMARK  Name = Caffeine
REMARK  3 active torsions:
REMARK  status: ('A' for Active; 'I' for Inactive)
REMARK    1  A    between atoms: C_1  and  N_2
REMARK    2  A    between atoms: N_9  and  C_14
REMARK    3  A    between atoms: N_12  and  C_13
REMARK                            x       y       z     vdW  Elec       q    Type
REMARK                         _______ _______ _______ _____ _____    ______ ____
ROOT
ATOM      1  C   UNL A   1      -7.643 -10.526  51.945  1.00  0.00    +0.199 C 
ATOM      2  N   UNL A   1      -8.017  -9.553  52.940  1.00  0.00    -0.304 N 
ATOM      3  C   UNL A   1      -7.832  -8.198  52.858  1.00  0.00    +0.207 A 
ATOM      4  N   UNL A   1      -8.302  -7.579  53.924  1.00  0.00    -0.231 NA
ATOM      5  C   UNL A   1      -8.798  -8.579  54.706  1.00  0.00    +0.130 A 
ATOM      6  C   UNL A   1      -8.633  -9.802  54.132  1.00  0.00    +0.153 A 
ATOM      7  C   UNL A   1      -9.061 -11.012  54.739  1.00  0.00    +0.244 A 
ATOM      8  O   UNL A   1      -8.906 -12.111  54.212  1.00  0.00    -0.348 OA
ATOM      9  N   UNL A   1      -9.667 -10.809  55.981  1.00  0.00    -0.208 N 
ATOM     10  C   UNL A   1      -9.858  -9.561  56.609  1.00  0.00    +0.252 A 
ATOM     11  O   UNL A   1     -10.405  -9.484  57.714  1.00  0.00    -0.328 OA
ATOM     12  N   UNL A   1      -9.404  -8.429  55.931  1.00  0.00    -0.240 N 
ATOM     13  C   UNL A   1      -9.571  -7.108  56.507  1.00  0.00    +0.230 C 
ATOM     14  C   UNL A   1     -10.154 -11.970  56.700  1.00  0.00    +0.243 C 
ENDROOT
TORSDOF 0
ENDMDL
MODEL 17
REMARK VINA RESULT:    -5.327      1.893      3.236
REMARK INTER + INTRA:          -5.327
REMARK INTER:                  -5.327
REMARK INTRA:                   0.000
REMARK UNBOUND:                 0.000
REMARK  Name = Caffeine
REMARK  3 active torsions:
REMARK  status: ('A' for Active; 'I' for Inactive)
REMARK    1  A    between atoms: C_1  and  N_2
REMARK    2  A    between atoms: N_9  and  C_14
REMARK    3  A    between atoms: N_12  and  C_13
REMARK                            x       y       z     vdW  Elec       q    Type
REMARK                         _______ _______ _______ _____ _____    ______ ____
ROOT
ATOM      1  C   UNL A   1      -7.154  -6.307  52.261  1.00  0.00    +0.199 C 
ATOM      2  N   UNL A   1      -7.376  -7.594  51.653  1.00  0.00    -0.304 N 
ATOM      3  C   UNL A   1      -7.122  -7.929  50.349  1.00  0.00    +0.207 A 
ATOM      4  N   UNL A   1      -7.412  -9.193  50.107  1.00  0.00    -0.231 NA
ATOM      5  C   UNL A   1      -7.868  -9.671  51.299  1.00  0.00    +0.130 A 
ATOM      6  C   UNL A   1      -7.863  -8.712  52.266  1.00  0.00    +0.153 A 
ATOM      7  C   UNL A   1      -8.290  -8.948  53.600  1.00  0.00    +0.244 A 
ATOM      8  O   UNL A   1      -8.282  -8.075  54.464  1.00  0.00    -0.348 OA
ATOM      9  N   UNL A   1      -8.712 -10.263  53.808  1.00  0.00    -0.208 N 
ATOM     10  C   UNL A   1      -8.732 -11.285  52.836  1.00  0.00    +0.252 A 
ATOM     11  O   UNL A   1      -9.126 -12.420  53.117  1.00  0.00    -0.328 OA
ATOM     12  N   UNL A   1      -8.291 -10.954  51.553  1.00  0.00    -0.240 N 
ATOM     13  C   UNL A   1      -8.273 -11.952  50.500  1.00  0.00    +0.230 C 
ATOM     14  C   UNL A   1      -9.167 -10.632  55.134  1.00  0.00    +0.243 C 
ENDROOT
TORSDOF 0
ENDMDL
MODEL 18
REMARK VINA RESULT:    -5.272      2.548      4.315
REMARK INTER + INTRA:          -5.272
REMARK INTER:                  -5.272
REMARK INTRA:                   0.000
REMARK UNBOUND:                 0.000
REMARK  Name = Caffeine
REMARK  3 active torsions:
REMARK  status: ('A' for Active; 'I' for Inactive)
REMARK    1  A    between atoms: C_1  and  N_2
REMARK    2  A    between atoms: N_9  and  C_14
REMARK    3  A    between atoms: N_12  and  C_13
REMARK                            x       y       z     vdW  Elec       q    Type
REMARK                         _______ _______ _______ _____ _____    ______ ____
ROOT
ATOM      1  C   UNL A   1      -8.248  -7.946  53.594  1.00  0.00    +0.199 C 
ATOM      2  N   UNL A   1      -8.692  -9.104  54.327  1.00  0.00    -0.304 N 
ATOM      3  C   UNL A   1      -8.618 -10.407  53.907  1.00  0.00    +0.207 A 
ATOM      4  N   UNL A   1      -9.089 -11.237  54.817  1.00  0.00    -0.231 NA
ATOM      5  C   UNL A   1      -9.478 -10.430  55.845  1.00  0.00    +0.130 A 
ATOM      6  C   UNL A   1      -9.253  -9.115  55.571  1.00  0.00    +0.153 A 
ATOM      7  C   UNL A   1      -9.568  -8.066  56.475  1.00  0.00    +0.244 A 
ATOM      8  O   UNL A   1      -9.361  -6.883  56.217  1.00  0.00    -0.348 OA
ATOM      9  N   UNL A   1     -10.130  -8.529  57.667  1.00  0.00    -0.208 N 
ATOM     10  C   UNL A   1     -10.379  -9.880  57.989  1.00  0.00    +0.252 A 
ATOM     11  O   UNL A   1     -10.883 -10.191  59.072  1.00  0.00    -0.328 OA
ATOM     12  N   UNL A   1     -10.032 -10.838  57.034  1.00  0.00    -0.240 N 
ATOM     13  C   UNL A   1     -10.249 -12.249  57.295  1.00  0.00    +0.230 C 
ATOM     14  C   UNL A   1     -10.491  -7.553  58.675  1.00  0.00    +0.243 C 
ENDROOT
TORSDOF 0
ENDMDL
